# System description #######################
#

3000 atoms
3 atom types
0 36.34017965892082 xlo xhi
0 36.14654704751288 ylo yhi
0 34.559266348654866 zlo zhi
#
# for a crystal:
# lx=a;  ly2+xy2=b2;  lz2+xz2+yz2=c2
# xz=c*cos(beta);  xy=b*cos(gamma)
# xy*xz+ly*yz=b*c*cos(alpha)
#

# Elements #################################

Masses

1 15.9994
2 28.086
3 91.224

Atoms
# number types charges
1     3   2.1968      0.585261    12.1528     23.1698
2     1   -0.722447   5.89443     32.7988     7.48648
3     2   1.41887     14.367      32.034      10.1028
4     2   1.36068     15.0733     10.1777     27.0988
5     2   1.42341     34.0302     11.4135     29.7789
6     2   1.48695     30.0161     4.42797     9.1837
7     2   1.38494     32.6801     30.7728     12.0186
8     2   1.37161     13.4462     8.73841     29.0622
9     2   1.4172      17.694      9.50231     28.3024
10    1   -0.69883    13.389      4.90602     9.27714
11    1   -0.73905    19.1535     1.96761     7.73659
12    1   -0.702696   8.8333      24.8629     16.8234
13    1   -0.720024   11.6786     6.78165     3.442
14    1   -0.708961   25.1208     5.81126     18.4364
15    1   -0.711481   8.26488     30.3047     21.5875
16    1   -0.732984   13.5423     29.4217     0.894478
17    1   -0.72376    25.3073     17.2764     9.13268
18    1   -0.731903   12.202      3.83504     32.2733
19    1   -0.69693    19.5046     13.7043     9.68229
20    1   -0.755735   25.0913     29.7044     19.7369
21    1   -0.715415   21.3721     29.5572     10.0913
22    1   -0.703425   17.2478     31.2137     33.1622
23    1   -0.680522   0.309413    18.5883     11.3345
24    1   -0.688666   32.6097     5.92209     34.299
25    2   1.44719     31.0177     28.3483     11.7446
26    1   -0.729563   35.3465     25.7299     5.02622
27    2   1.42298     30.3008     16.3625     15.817
28    2   1.3921      34.6503     16.0284     3.74895
29    2   1.24802     32.5598     18.4496     21.5442
30    2   1.4013      3.02855     1.21564     30.6798
31    2   1.44745     13.4126     6.13971     27.7464
32    2   1.42345     12.7556     8.59434     26.2334
33    2   1.46947     14.2971     28.7121     25.0918
34    1   -0.7592     4.87213     17.6096     11.1705
35    1   -0.675071   6.69785     3.73149     3.0296
36    1   -0.752806   26.7376     21.2114     25.2952
37    1   -0.712495   6.08274     0.327974    24.1988
38    1   -0.778439   27.6278     17.3397     13.8369
39    1   -0.80132    22.7831     19.4334     9.78258
40    1   -0.904814   29.8716     27.968      5.53135
41    1   -0.721256   6.60925     13.5198     19.7288
42    1   -0.678067   23.3154     19.5976     0.519708
43    1   -0.703484   9.8025      6.78156     17.4046
44    1   -0.735068   16.4193     3.80133     5.02889
45    1   -0.709936   19.9737     1.93687     21.4061
46    1   -0.755404   28.378      4.00119     21.7195
47    1   -0.67506    14.7586     11.6649     26.5624
48    1   -0.695484   29.4803     25.1735     34.9179
49    2   1.39298     5.11296     0.432665    32.6685
50    1   -0.744449   9.04452     27.02       32.1398
51    2   1.44225     32.6403     17.823      4.90845
52    2   1.41375     16.1902     29.7733     9.89336
53    2   1.45508     35.2868     32.161      10.8078
54    2   1.45815     22.1488     30.97       32.9071
55    2   1.46438     31.83       16.5707     34.0117
56    2   1.49239     20.6031     7.40038     14.2492
57    2   1.37826     26.5769     14.2288     -0.183755
58    1   -0.685815   11.3421     5.05344     25.1796
59    1   -0.720314   23.7399     3.31818     33.1619
60    1   -0.722062   1.65084     6.38313     26.5107
61    1   -0.739658   7.62955     1.67325     8.11847
62    1   -0.656504   32.6757     13.5249     24.2591
63    1   -0.681668   15.861      1.41129     3.48456
64    1   -0.71665    30.5674     14.2857     31.343
65    1   -0.723077   2.34216     9.52094     13.6374
66    1   -0.601044   11.4987     22.9562     18.2382
67    1   -0.454513   36.3174     19.8409     4.81275
68    1   -0.697755   24.4762     19.0767     28.0775
69    1   -0.721526   2.84687     11.321      1.12161
70    1   -0.729274   25.4681     9.86247     12.8848
71    1   -0.707204   32.7767     23.5581     1.0022
72    1   -0.661619   33.3386     12.7454     1.59513
73    2   1.43038     0.614576    7.1883      27.4128
74    1   -0.695036   1.34513     17.4578     25.8534
75    2   1.46699     20.7551     29.273      6.42813
76    2   1.36571     13.0973     29.9494     2.34477
77    2   1.45098     20.9276     22.8781     23.2535
78    2   1.48494     18.9824     23.6255     29.0322
79    2   1.47519     24.9697     33.5038     5.56046
80    2   1.42685     18.6753     22.3019     34.4943
81    2   1.45141     4.63395     34.4049     35.5064
82    1   -0.655859   4.02145     20.7826     6.41449
83    1   -0.729301   7.0202      32.6339     23.2548
84    1   -0.709803   26.2562     21.4198     30.3049
85    1   -0.740374   27.8132     9.17661     5.74244
86    1   -0.71569    13.4571     5.38807     15.3924
87    1   -0.875585   24.5472     0.591796    22.6856
88    1   -0.654453   27.4117     28.5012     5.92807
89    1   -0.677399   10.7677     2.91249     23.8162
90    1   -0.70871    0.492615    15.0453     25.1359
91    1   -0.707601   5.87608     16.1893     15.8724
92    1   -0.724541   4.49067     9.78363     5.87375
93    1   -0.769547   17.8405     28.9407     26.0161
94    1   -0.733086   0.865341    0.488563    16.2259
95    1   -0.71099    8.34874     10.4701     19.4984
96    1   -0.738972   6.01806     28.1668     14.5652
97    2   1.43016     3.84838     13.8714     16.5435
98    1   -0.779804   20.8195     25.4408     12.7203
99    2   1.37906     17.173      24.6391     17.0745
100   2   1.45377     36.3285     0.440176    20.7184
101   2   1.50667     28.3303     28.0335     19.7382
102   2   1.3712      11.3039     27.591      7.90583
103   2   1.36813     15.9056     27.5484     4.1655
104   2   1.45159     28.4238     12.8067     16.7735
105   2   1.28462     10.037      0.524955    30.9235
106   1   -0.71827    34.1676     26.5197     35.2207
107   1   -0.731005   11.7946     18.5289     3.48699
108   1   -0.757318   34.7251     28.9152     28.4238
109   1   -0.774347   8.40658     5.06882     7.53247
110   1   -0.689027   16.5251     17.773      27.5386
111   1   -0.658025   6.94274     17.6805     35.7727
112   1   -0.729703   21.983      26.0881     6.93864
113   1   -0.719746   26.867      26.4506     29.186
114   1   -0.734253   31.2793     11.0442     32.2214
115   1   -0.712913   19.2577     4.49025     21.1328
116   1   -0.730811   3.95286     29.1604     13.1038
117   1   -0.735489   28.4004     22.4007     9.0673
118   1   -0.707074   20.188      20.7755     14.1027
119   1   -0.876338   36.3121     31.1206     24.3031
120   1   -0.679016   36.3035     14.0653     16.9975
121   2   1.47964     2.56995     0.987237    19.4605
122   1   -0.752492   6.35362     28.3068     25.2454
123   2   1.45597     13.574      11.9303     8.34579
124   2   1.5478      6.06156     2.04551     16.9681
125   2   1.4623      25.7401     29.2471     16.1387
126   2   1.45325     21.0207     22.6461     16.7092
127   2   1.45483     16.4335     1.0355      27.7955
128   2   1.49572     9.86776     26.7821     10.3253
129   2   1.48744     23.9222     16.7207     8.4736
130   1   -0.728222   17.582      25.5478     34.4132
131   1   -0.870717   23.1621     16.2205     21.7636
132   1   -0.782135   3.06811     4.48817     18.1069
133   1   -0.719434   33.1589     14.8228     0.0449238
134   1   -0.743886   12.2322     3.25632     2.46283
135   1   -0.735483   2.07661     12.32       34.8214
136   1   -0.721566   17.0467     30.7143     35.7175
137   1   -0.687536   12.0821     34.3674     0.381996
138   1   -0.71897    11.7224     0.394904    23.2867
139   1   -0.724927   9.21427     23.9345     28.5863
140   1   -0.699796   36.146      9.96713     19.9623
141   1   -0.696686   13.2481     8.1023      15.4988
142   1   -0.700517   29.8        16.8681     1.18462
143   1   -0.688259   31.2375     30.1969     19.0319
144   1   -0.777637   5.91135     16.1602     19.9705
145   2   1.44593     1.70502     21.2968     20.7641
146   1   -0.745974   12.4484     3.9447      4.93703
147   2   1.3927      31.0519     0.569511    10.7258
148   2   1.34659     18.5191     19.1563     25.5504
149   2   1.43029     33.5059     8.52805     20.5964
150   2   1.48674     21.1521     29.4411     11.7024
151   2   1.45319     14.3839     15.0769     4.08385
152   2   1.32952     25.2551     26.6951     17.4329
153   2   1.42689     13.1667     11.5957     18.0015
155   1   -0.736739   28.8882     31.5972     18.6259
156   1   -0.648967   27.0122     12.1955     25.3562
157   1   -0.749928   20.3145     2.09354     2.87759
158   1   -0.724234   2.50089     1.04329     10.6399
159   1   -0.663686   35.5114     17.4248     3.42641
160   1   -0.734303   17.2953     11.0517     2.49311
161   1   -0.71456    14.4688     1.21741     18.3982
162   1   -0.685471   3.48981     21.3114     3.98227
163   1   -0.714631   18.406      29.8107     1.55238
164   1   -0.683418   23.5254     15.2209     24.1949
165   1   -0.722491   29.3931     14.1344     1.55138
166   1   -0.749767   5.55954     10.8123     1.17549
167   1   -0.891656   18.9409     1.85607     31.208
168   1   -0.715327   35.7862     5.79534     4.68933
169   2   1.44194     25.4726     26.5223     35.2979
170   1   -0.664055   34.1644     9.59465     14.8453
171   2   1.48607     16.2206     19.4031     18.6294
172   2   1.46349     9.62352     24.897      29.84
173   2   1.41445     6.10847     33.2375     27.2599
174   2   1.41521     28.5264     23.6444     17.9951
175   2   1.4193      30.3228     30.9909     34.2423
176   2   1.34446     7.52369     30.2661     8.30006
177   2   1.41759     2.43119     9.43947     10.1711
178   1   -0.718081   23.0195     13.3949     30.237
179   1   -0.657061   35.8396     14.5972     29.3226
180   1   -0.746879   16.7004     5.78786     18.269
181   1   -0.748627   5.70549     28.9803     28.3267
182   1   -0.694736   22.652      21.4616     19.4696
183   1   -0.723865   9.16092     30.0082     11.5936
184   1   -0.561183   36.5122     26.4824     22.0495
185   1   -0.679624   16.8009     29.096      11.2257
186   1   -0.717278   14.6341     4.54287     34.4968
187   1   -0.667126   4.48003     19.8958     15.6416
188   1   -0.737832   28.0346     3.70508     17.89
189   1   -0.667965   30.6526     20.1421     18.0721
190   1   -0.713611   11.5025     8.83215     5.10166
191   1   -0.721866   36.1347     6.34457     8.80365
192   1   -0.706076   16.7147     4.40584     15.9965
193   3   2.37812     21.3052     16.6788     21.6428
194   1   -0.748362   10.245      16.9395     28.9739
195   3   2.43411     5.79289     19.7738     30.9584
196   2   1.47129     30.0712     0.486405    33.2643
197   2   1.44144     7.83997     1.12693     9.61555
198   2   1.57012     23.2667     7.24376     32.3745
199   2   1.42773     21.7432     2.75066     5.75076
200   2   1.48035     35.2218     28.284      2.60735
201   2   1.47208     24.2674     14.1735     30.9377
202   1   -0.713531   30.9616     9.4774      24.8804
203   1   -0.769089   22.4276     6.3874      31.4003
204   1   -0.543783   12.7923     23.7544     3.83308
205   1   -0.741092   2.30798     24.2504     10.0161
206   1   -0.702868   14.7127     15.1203     20.9434
207   1   -0.717244   3.62626     9.16999     11.2275
208   1   -0.632408   8.43757     30.1909     6.81594
209   1   -0.684822   22.195      17.4148     25.0387
210   1   -0.685898   21.7969     18.972      18.3145
211   1   -0.750397   27.1696     12.8718     22.1676
212   1   -0.749789   6.37672     8.96665     35.5914
213   1   -0.700997   1.71179     4.9746      5.75109
214   1   -0.738319   5.98238     6.24936     8.27944
215   1   -0.740916   1.92324     29.826      17.3215
216   1   -0.716908   10.276      19.0115     27.5183
217   2   1.38683     34.2344     6.95125     26.1381
218   1   -0.837331   3.16818     22.7921     1.68069
219   2   1.44686     10.6254     19.5701     12.8189
220   2   1.56073     30.4525     11.1461     0.296334
221   2   1.46836     1.67057     29.4628     2.17648
222   2   1.38011     13.2714     27.999      0.102483
223   2   1.48846     9.46471     22.5594     27.8353
224   2   1.22756     0.878645    31.0527     8.61169
225   2   1.2844      26.5678     17.5605     31.9972
226   1   -0.757047   4.80685     30.4893     30.3254
227   1   -0.707626   35.9336     6.41277     32.2286
228   1   -0.742725   11.5262     19.2347     9.81658
229   1   -0.693759   20.817      29.2086     19.9653
230   1   -0.687529   30.69       24.5825     21.0228
231   1   -0.728294   18.5629     6.9697      2.71407
232   1   -0.755655   34.9909     24.8642     0.917034
233   1   -0.634841   25.8757     9.80324     25.0816
234   1   -0.691921   31.4862     0.0385249   33.9746
235   1   -0.668169   14.8099     21.5492     34.8395
236   1   -0.719855   31.5187     10.186      7.64546
237   1   -0.710329   9.1111      22.191      5.42518
238   1   -0.733774   1.7629      30.4309     3.44245
239   1   -0.666172   0.932211    17.9917     0.163107
240   1   -0.676694   11.7092     23.1279     15.4542
241   3   2.35626     13.2925     12.9888     1.62859
242   1   -0.746867   3.77703     30.0773     21.2961
243   2   1.45343     27.1997     6.40053     12.5881
244   2   1.47072     30.8495     11.512      7.10389
245   2   1.3365      21.3012     17.8298     31.8946
246   2   1.26875     2.58851     16.911      19.5881
247   2   1.45048     7.46469     19.267      12.5784
248   2   1.4195      5.59536     14.3611     30.1565
249   2   1.38745     2.59333     21.2825     12.4391
250   1   -0.709968   30.6925     9.49608     17.3684
251   1   -0.750641   23.8576     8.03704     12.3221
252   1   -0.685645   27.3902     14.9079     26.3685
253   1   -0.751482   4.04961     7.6476      13.3756
254   1   -0.692874   23.7712     19.5262     12.1797
255   1   -0.784917   1.27988     10.0697     11.1043
256   1   -0.808159   5.55345     15.5801     7.88444
257   1   -0.792051   0.598704    12.5699     21.2557
258   1   -0.708122   13.9288     7.87849     4.22861
259   1   -0.674039   23.0072     21.1923     34.6228
260   1   -0.723496   14.0795     32.1327     28.6565
261   1   -0.719647   26.8738     30.7459     13.3254
262   1   -0.719088   15.7033     20.0064     17.2559
263   1   -0.752696   24.8611     17.9373     18.6797
264   1   -0.768667   7.25126     5.879       22.759
265   2   1.38275     33.0011     23.2933     16.9797
266   1   -0.679439   7.4683      24.4865     3.40414
267   2   1.42688     6.22642     23.1246     13.9974
268   2   1.35785     25.8152     30.5467     9.60636
269   2   1.39514     26.888      13.8068     5.28599
270   2   1.46378     11.1858     17.9072     28.216
271   2   1.24068     7.36192     1.22224     23.7764
272   2   1.43061     18.8671     11.3453     2.49965
273   2   1.47199     24.6327     17.4661     28.1689
274   1   -0.723958   26.3605     21.6387     4.05525
275   1   -0.742701   17.9352     5.84303     4.92198
276   1   -0.692011   34.7884     8.51143     21.6416
277   1   -0.663411   25.047      11.8632     23.4113
278   1   -0.639784   33.3419     12.2269     21.9814
279   1   -0.715146   20.2763     30.4182     15.0645
280   1   -0.687726   6.79789     22.8497     12.4696
281   1   -0.729267   5.82961     5.84479     2.98501
282   1   -0.717343   14.0317     3.31136     16.7253
283   1   -0.707731   22.4234     31.2925     27.493
284   1   -0.730899   20.9171     27.897      12.1439
285   1   -0.76266    26.4354     27.7418     27.0305
286   1   -0.773359   20.0071     13.4718     12.2572
287   1   -0.706448   35.6375     11.8619     15.4823
288   1   -0.747873   32.5378     22.2374     28.2197
289   2   1.47515     30.2116     29.841      31.4578
290   1   -0.731907   19.1656     28.0253     24.0462
291   2   1.48204     21.9795     29.1951     30.5421
292   2   1.41702     14.4222     0.675008    3.36088
293   2   1.46013     4.25592     11.4555     1.89106
294   2   1.44323     34.3481     31.2023     2.83456
295   2   1.51446     18.3447     14.0478     17.8525
296   2   1.51697     2.94931     12.6694     30.0797
297   2   1.40862     28.315      5.53088     21.2122
298   1   -0.745098   34.3581     1.78087     13.1492
299   1   -0.67617    17.6339     18.1807     30.0266
300   1   -0.703593   20.8473     25.9115     0.355255
301   1   -0.720154   5.48675     8.59056     17.5384
302   1   -0.712043   20.7264     14.5806     31.2775
303   1   -0.789855   28.5297     22.3919     2.79774
304   1   -0.590251   31.5356     17.5559     32.6933
305   1   -0.71108    14.5667     -0.0334102  35.5196
306   1   -0.739781   19.4361     25.6298     24.9912
307   1   -0.726979   23.2228     5.88275     0.202091
308   1   -0.681394   18.9567     22.2069     20.1025
309   1   -0.691346   33.4329     12.2311     31.0642
310   1   -0.724314   15.5288     21.6096     15.4728
311   1   -0.747623   13.3121     2.15209     0.338284
312   1   -0.738024   0.759399    4.457       19.3772
313   2   1.33969     21.633      1.83715     11.5007
314   1   -0.613936   29.6026     19.581      32.125
315   2   1.36604     19.7824     21.7766     1.06767
316   3   2.18091     32.0589     18.4089     13.9066
317   2   1.43202     16.4787     6.87377     19.4339
318   2   1.39587     4.36221     11.8452     27.6863
319   2   1.46734     3.26872     29.235      22.5733
320   2   1.43365     17.3369     27.9316     29.3542
321   2   1.38014     14.8436     19.9045     35.1414
322   1   -0.63486    0.651187    17.4373     23.3305
323   1   -0.726079   26.328      9.26028     27.4396
324   1   -0.730721   18.195      13.7474     20.852
325   1   -0.668035   5.16251     15.5866     29.1488
326   1   -0.710575   18.1592     15.9138     8.71061
327   1   -0.741991   31.5356     7.5716      10.7746
328   1   -0.793659   22.4116     2.06892     22.6351
329   1   -0.683748   9.05773     4.46944     23.9787
330   1   -0.727751   12.2214     11.5144     9.0616
331   1   -0.714505   1.80716     15.4059     7.99068
332   1   -0.733593   14.0859     3.01268     7.52875
333   1   -0.767995   24.7509     11.0071     16.975
334   1   -0.748862   4.45265     12.977      2.30093
335   1   -0.686308   18.0346     20.4039     26.6238
336   1   -0.724346   33.8433     5.83038     7.87815
337   2   1.42074     22.0925     15.8412     24.6982
338   1   -0.688112   21.2885     33.2972     5.96115
339   2   1.48932     30.7957     34.2319     20.2502
340   2   1.42998     16.6749     5.89234     16.6407
341   2   1.44802     13.4746     14.8572     11.2317
342   2   1.48077     20.3265     18.381      18.799
343   2   1.40322     17.2406     6.58105     3.58892
344   2   1.53723     24.4495     9.40798     11.7811
345   2   1.47919     21.8575     29.1958     35.2775
346   1   -0.70819    11.0959     24.6659     30.4288
347   1   -0.71802    29.0559     18.7166     35.5315
348   1   -0.730052   26.3445     30.6624     33.367
349   1   -0.739864   35.3046     20.8413     15.6152
350   1   -0.716227   4.63151     26.8097     33.9583
351   1   -0.725853   26.5147     25.8432     5.29911
352   1   -0.69255    28.3424     28.2797     28.917
353   1   -0.696322   9.24349     23.7658     1.534
354   1   -0.717336   20.7669     20.5975     5.18801
355   1   -0.746571   34.2429     3.79386     20.6842
356   1   -0.768177   29.6702     33.0897     20.2867
357   1   -0.846913   20.5894     3.78909     27.3143
358   1   -0.716653   35.8996     23.3104     16.6304
359   1   -0.682978   5.69612     26.9713     9.50235
360   1   -0.645996   0.603473    19.2725     17.6802
361   2   1.48814     32.4473     6.0957      1.9236
362   1   -0.713085   27.9806     33.9215     15.3417
363   3   2.19537     4.11513     30.4682     9.33125
364   2   1.52588     8.96183     5.37802     0.428651
365   2   1.1343      17.1915     33.5677     20.1036
366   2   1.39898     23.0657     23.2134     14.5702
367   2   1.47474     25.7889     1.88248     13.2282
368   2   1.43865     29.788      13.604      30.1417
369   2   1.39856     14.5414     20.6137     26.1139
370   1   -0.736432   10.0456     31.2004     19.6038
371   1   -0.661249   35.0187     14.1812     12.4118
372   1   -0.672563   10.6765     0.261578    6.70759
373   1   -0.780484   22.6599     12.6886     4.81899
374   1   -0.764003   12.3104     18.8535     7.21805
375   1   -0.739898   26.0049     4.57009     9.60946
376   1   -0.203271   28.9211     1.14383     6.9765
377   1   -0.735274   25.353      20.3049     14.3953
378   1   -0.728793   6.95492     17.2095     6.60327
379   1   -0.791501   18.1371     18.3433     9.49565
380   1   -0.647192   25.0619     13.3859     8.94692
381   1   -0.704601   6.66971     0.854906    32.3354
382   1   -0.704723   19.1        20.4406     10.0901
383   1   -0.72523    31.635      17.5052     35.2339
384   1   -0.707836   13.0332     10.6474     19.3452
385   2   1.44083     6.78693     11.1184     24.8063
386   1   -0.748815   9.26325     8.1433      26.7349
387   2   1.21369     4.32942     26.2113     35.4416
388   2   1.34385     6.11904     16.1719     27.9584
389   2   1.52012     21.929      28.4634     9.01789
390   2   1.47213     18.1137     13.8792     33.8228
391   2   1.44282     27.4979     24.4409     25.0971
392   2   1.2888      27.9979     23.2909     22.1734
393   3   2.04848     18.5729     1.39055     15.4276
394   1   -0.685156   35.1362     33.9014     20.3702
395   1   -0.711445   34.6013     21.4432     23.2573
396   1   -0.680769   26.4296     2.30721     9.05049
397   1   -0.689492   26.5419     9.98721     15.251
398   1   -0.718166   32.9381     9.92361     23.4296
399   1   -0.653237   28.3133     19.9125     8.01825
400   1   -0.763894   27.361      22.1817     21.1842
401   1   -0.739474   32.4135     22.4891     33.7621
402   1   -0.710967   28.6132     10.7895     4.00388
403   1   -0.778228   29.7628     12.2063     35.5725
404   1   -0.662873   26.1903     12.1189     13.611
405   1   -0.719806   11.8426     12.4947     32.6663
406   1   -0.704536   29.2342     1.62084     17.7524
407   1   -0.617587   30.3246     30.6136     24.8807
408   1   -0.681349   10.8203     34.1734     34.2375
409   2   1.48576     1.99228     1.99693     9.43891
410   1   -0.766889   15.5233     1.40584     21.8618
411   2   1.44163     1.42385     33.551      16.0155
412   2   1.46801     25.549      20.3706     24.5793
413   2   1.45354     10.1111     9.2104      11.4394
414   2   1.1866      27.8729     19.4014     0.0385847
415   2   1.00952     32.0929     24.9013     1.61305
416   2   1.44698     21.6359     7.2083      4.81896
417   2   1.42401     10.2903     3.75102     15.7567
418   1   -0.497538   35.6441     3.38103     28.5162
419   1   -0.760431   26.5307     8.82809     33.7995
420   1   -0.68612    14.9987     16.4401     32.9935
421   1   -0.734706   15.5637     31.0985     10.5065
422   1   -0.772231   12.2632     12.1835     0.202207
423   1   -0.664261   26.2786     9.75389     31.4373
424   1   -0.818241   2.94517     27.8005     29.0729
425   1   -0.721255   6.89334     11.8675     17.7316
426   1   -0.732662   12.9446     30.2623     32.8876
427   1   -0.637351   24.4253     22.5681     15.4016
428   1   -0.735214   8.14213     13.0808     8.4598
429   1   -0.740298   9.63183     32.7753     23.6374
430   1   -0.730998   31.5697     7.0431      16.6867
431   1   -0.707476   11.0066     14.4894     31.082
432   1   -0.721532   33.2625     29.1381     30.6219
433   2   1.49666     20.6544     30.2702     16.5938
434   1   -0.71627    26.7374     4.24396     7.15443
435   2   1.40869     15.7377     22.786      34.285
436   2   1.42699     1.6731      28.554      28.5778
437   2   1.38693     18.9871     15.0504     4.35646
438   2   1.40756     35.3949     9.17122     3.00899
439   2   1.44738     14.7706     24.2798     31.5713
440   2   1.44742     35.122      26.7985     12.6698
442   1   -0.702681   25.9957     33.5076     6.76822
443   1   -0.720197   9.13178     9.39446     21.7514
444   1   -0.713278   31.4689     33.449      3.39329
445   1   -0.695973   18.769      25.0581     32.043
446   1   -0.710886   7.45026     33.8488     2.5935
447   1   -0.719198   12.8697     27.9819     8.17254
448   1   -0.704105   36.2432     31.53       9.73945
449   1   -0.723016   31.127      12.0283     26.8767
450   1   -0.699586   7.97011     9.54758     17.0631
451   1   -0.765663   26.8445     13.5079     19.7216
452   1   -0.738917   24.9137     30.5917     23.0843
453   1   -0.682815   8.31756     1.14212     25.1275
454   1   -0.705377   13.2239     13.4557     30.7285
455   1   -0.719665   1.76849     31.1224     34.6635
456   1   -0.696677   23.0968     19.9497     7.16519
457   2   1.50482     23.0398     22.3921     28.6375
458   1   -0.742792   6.84423     30.14       16.0894
459   2   1.48932     10.3489     31.0222     18.0271
460   2   1.4478      14.996      26.2267     1.68525
461   2   1.40697     2.87275     20.1865     15.5036
462   2   1.49785     6.00962     17.4282     5.3447
463   2   1.39419     13.4526     17.6461     30.0114
464   2   1.45798     6.18094     12.8628     5.1777
465   2   1.38245     20.0386     20.2751     32.8106
466   1   -0.655659   30.4461     0.704251    9.21099
467   1   -0.798377   5.02501     13.1676     27.1211
468   1   -0.54767    33.9192     11.5647     8.33756
469   1   -0.372325   22.4894     9.08194     23.7113
470   1   -0.68289    22.7739     2.93998     12.0494
471   1   -0.716843   4.59998     3.98427     29.6
472   1   -0.870939   35.0025     28.3659     24.1271
473   1   -0.862149   10.5108     30.7687     5.0987
474   1   -0.738306   7.508       14.3296     23.817
475   1   -0.674241   33.2244     8.05625     25.4421
476   1   -0.710745   4.87688     20.8819     1.73119
477   1   -0.690384   14.9846     17.9086     29.4838
478   1   -0.699926   1.9671      21.6761     31.0434
479   1   -0.692246   21.6554     19.8756     24.3878
480   1   -0.720107   13.4552     19.7629     4.87166
481   2   1.45422     17.3566     7.35393     10.8401
482   1   -0.717719   13.0216     32.4693     6.14576
483   2   1.44712     33.0916     2.96232     16.9841
484   3   2.20529     22.3761     4.25107     27.8381
485   2   1.47966     10.7638     4.39704     32.6328
486   2   1.33496     32.159      14.8204     25.263
487   2   1.38187     26.6127     9.24156     19.168
488   2   1.39269     15.0795     29.238      30.7078
489   2   1.42782     12.9365     34.1707     24.0277
490   1   -0.765755   22.1852     27.6402     35.0569
491   1   -0.748557   9.97525     28.6117     21.2591
492   1   -0.731494   22.2785     10.6463     3.49687
493   1   -0.727346   13.6527     3.12714     25.772
494   1   -0.710764   20.8622     7.75566     12.7481
495   1   -0.693914   31.0248     5.09463     29.5531
496   1   -0.719652   11.2387     16.8258     8.71455
497   1   -0.754781   17.733      3.54183     11.2655
498   1   -0.746886   30.7872     15.4768     33.8137
499   1   -0.790878   27.6117     15.4491     -0.0365514
500   1   -0.732478   21.7561     1.27102     6.42201
501   1   -0.760238   11.6441     29.4822     23.0501
502   1   -0.73394    6.3294      30.9313     32.2687
503   1   -0.62999    0.538898    1.89292     27.0163
504   1   -0.712146   14.3887     18.7488     2.50517
505   2   1.29823     1.38612     13.9738     26.02
506   1   -0.686519   36.469      28.6455     20.647
507   2   1.37681     1.49305     17.9365     27.3524
508   2   1.46003     23.703      6.50601     18.2766
509   2   1.38136     22.5303     20.9096     -0.0263833
510   2   1.43073     27.6134     2.58605     21.5671
511   2   1.44946     14.7032     0.0474151   21.6188
512   2   1.40411     28.1248     9.7891      21.7053
513   2   1.42624     16.6208     2.22269     4.75478
514   1   -0.735572   29.1383     23.2427     28.8143
515   1   -0.707525   6.31427     6.82209     20.4903
516   1   -0.744341   28.1935     12.9465     5.62075
517   1   -0.730279   2.85165     14.5172     26.5421
518   1   -0.713981   11.394      26.0708     32.9071
519   1   -0.736208   1.09647     26.5542     9.18061
520   1   -0.723028   19.5078     29.9038     7.20227
521   1   -0.827974   23.274      17.3558     1.72599
522   1   -0.687357   4.88208     6.80452     22.7839
523   1   -0.725746   16.8889     13.6353     18.3998
524   1   -0.858672   7.45515     20.5261     31.6805
525   1   -0.71685    29.9539     32.9771     13.9296
526   1   -0.735082   35.5782     11.976      1.24789
527   1   -0.7659     30.9039     0.311879    18.7745
528   1   -0.656744   33.7206     2.49766     15.5651
529   2   1.47705     15.0171     14.065      22.1324
530   1   -0.718283   9.54956     1.59415     18.926
531   2   1.49035     29.5815     23.4794     30.3336
532   2   1.36449     12.0849     15.9683     5.44304
533   3   1.96781     29.9803     26.8455     4.01308
534   2   1.47039     36.4949     4.61217     5.53595
535   2   1.48179     19.2031     1.16816     3.46995
536   2   1.4391      31.0021     33.0272     12.7147
537   2   1.42548     18.7568     2.34327     11.3518
538   1   -0.698578   23.641      14.1257     27.4302
539   1   -0.690939   27.4865     17.6645     18.8695
540   1   -0.708322   19.4818     23.5401     33.8956
541   1   -0.920148   1.25215     18.9989     31.6889
542   1   -0.681784   35.8189     12.2154     34.7766
543   1   -0.622639   20.7055     14.5205     0.611688
544   1   -0.719013   25.8706     4.9344      4.74724
545   1   -0.656642   1.36754     1.4835      24.6409
546   1   -0.740917   6.50525     19.3573     13.8641
547   1   -0.596402   4.65035     32.8397     35.3372
548   1   -0.70136    33.3879     31.5257     4.11276
549   1   -0.762642   25.6318     14.384      30.1826
550   1   -0.742175   29.8344     17.3836     24.7457