# System description #######################
#

3000 atoms
2 atom types
0 36.825  xlo xhi
0 34.591  ylo yhi
0 35.544  zlo zhi
#
# for a crystal:
# lx=a;  ly2+xy2=b2;  lz2+xz2+yz2=c2
# xz=c*cos(beta);  xy=b*cos(gamma)
# xy*xz+ly*yz=b*c*cos(alpha)
#

# Elements #################################

Masses

1 15.9994
2 28.0860

Atoms

1 2 1.99667 4 36.7821007 12.8828002 22.910801
2 1 -0.7768891 2 6.81914 33.3237991 7.4503498
3 2 2.2199199 5 12.8995 31.0545006 10.1070004
4 2 2.1858599 4 15.1188002 12.8417998 24.2271996
5 2 1.88054 4 35.3656998 10.8621998 29.2619
6 2 2.07921 5 30.1443996 3.6729601 9.1049404
7 2 2.1331 4 32.3031998 30.4937001 12.0750999
8 2 2.22981 5 15.4850998 9.9983502 27.9489994
9 2 2.3169501 5 17.4538994 12.6104002 27.0744991
10 1 -0.726693 3 14.5754996 4.9018402 9.7032004
11 1 -0.716712 2 19.0037003 2.0597301 7.9975802
12 1 -0.742525 2 10.2129002 25.8957996 16.4095001
13 1 -0.767717 2 11.8567 6.56843 3.4154101
14 1 -0.703683 3 24.4769993 5.1845002 18.1536007
15 1 -0.7561831 2 7.9875302 31.1473999 21.1252003
16 1 -0.719872 2 7.7261901 30.4176998 34.3748016
17 1 -0.75562 2 24.9680996 17.1334 9.1249304
18 1 -0.689045 2 13.0753002 4.4812799 32.3460007
19 1 -0.701728 2 19.0846996 13.2751999 9.9965402
20 1 -0.746031 2 25.0666008 29.6861 19.9417
21 1 -0.668925 2 21.7301007 29.4955998 10.2432003
22 1 -0.741385 2 17.0839005 30.5930004 34.7448006
23 1 -0.691841 2 36.0239983 18.7614994 11.3374004
24 1 -0.739965 2 32.6057015 6.1668701 33.3977013
25 2 2.2347701 5 31.6425991 27.0725002 13.0651999
26 1 -0.692667 2 35.0028992 24.7658005 4.6679602
27 2 2.07233 5 32.8740998 17.5105 20.2187004
28 2 2.06354 4 35.2452011 15.4251004 5.4291902
29 2 2.11147 5 32.2717018 19.9375992 21.7633991
30 2 2.0885 5 2.2778201 0.778669 30.5925999
31 2 1.93187 4 15.3078003 6.7364898 26.4167996
32 2 2.16715 4 13.6758003 9.7525997 24.941
33 2 1.75553 3 14.1372004 30.1928005 26.2341995
34 1 -0.733657 2 4.6795402 17.7296009 11.3266001
35 1 -0.709651 2 6.9903302 3.3352599 2.3896101
36 1 -0.719671 2 26.5519009 20.0807991 27.0564995
37 1 -0.7023731 2 5.4098702 1.3184101 24.8370991
38 1 -0.715357 3 27.8456002 16.1541996 13.7742005
39 1 -0.763143 2 23.1532993 19.5918007 10.1956997
40 1 -0.807646 3 30.6751004 27.3887997 6.3053198
41 1 -0.723437 3 5.8287401 14.9372998 20.8950006
42 1 -0.735641 2 23.1252995 18.6322994 0.321276
43 1 -0.747438 2 10.7175999 3.77489 17.3188
44 1 -0.739152 2 17.2658005 3.3550401 5.56846
45 1 -0.689113 2 21.1009007 1.19524 20.7401009
46 1 -0.758337 2 27.6536007 3.7207799 21.6930008
47 1 -0.718555 2 18.8838006 14.7841997 21.6091004
48 1 -0.706232 2 29.7506008 24.9335004 34.6158982
49 2 2.2620001 6 4.30515 33.5601006 32.5074005
50 1 -0.75887 2 8.1536999 26.7707005 32.4942017
51 2 2.1399601 4 34.0808983 17.5552006 7.63655
52 2 2.0475299 4 15.6086998 31.0154991 11.7792998
53 2 2.0790701 4 34.8875008 31.6425991 10.5092001
54 2 1.49342 4 22.0324993 31.4871006 32.8897018
55 2 1.45213 4 31.2119999 15.1451998 34.1138992
56 2 1.52384 4 20.3903999 7.0011401 14.3627005
57 2 1.4109401 4 28.5872994 14.4254999 35.1921997
58 1 -0.743527 2 10.6690998 4.3450699 24.2061997
59 1 -0.746328 2 24.7556992 3.3021701 33.709301
60 1 -0.693891 2 1.02431 7.4596801 26.6333008
61 1 -0.784103 2 6.4397202 2.1249101 7.2589598
62 1 -0.607576 2 32.6356011 13.4336005 24.5140991
63 1 -0.680273 2 15.3346005 2.1014199 4.89283
64 1 -0.708903 2 30.6478005 13.0745001 30.9706994
65 1 -0.695775 2 2.29737 9.8107004 13.7966004
66 1 -0.744497 2 12.3500996 23.1245003 18.5984001
67 1 -0.716932 2 1.2132501 20.1501999 2.6573601
68 1 -0.727632 3 23.3430004 17.6009999 28.0634003
69 1 -0.707749 2 3.28424 11.3542996 0.231078
70 1 -0.507138 3 25.6396008 10.1913004 12.8836002
71 1 -0.72107 2 34.0279999 23.9304008 1.61385
72 1 -0.718819 2 33.6329003 12.2333002 3.2109699
73 2 1.2175501 4 36.4462013 7.6321502 27.4372006
74 1 -0.5396191 3 0.278653 18.4382992 26.6725006
75 2 1.45099 4 20.7397003 28.7077008 6.3113299
76 2 1.4568501 4 8.4339705 29.7315007 4.2862601
77 2 1.5314 4 21.3827 22.3540993 24.1592007
78 2 1.44295 4 17.4563008 23.5998001 28.4099007
79 2 1.45988 4 24.9808006 33.4936981 5.4621301
80 2 1.44076 4 18.6968994 22.3610993 34.6720009
81 2 1.1052001 3 5.2086601 0.284185 35.460701
82 1 -0.6965 2 4.2636299 20.0613995 4.8170901
83 1 -0.694149 2 9.1370802 33.4113007 21.9745008
84 1 -0.566426 3 26.5508995 20.7623005 31.3623009
85 1 -0.723298 2 27.1268997 8.1695995 5.88967
86 1 -0.683569 2 14.1274004 5.1447101 15.1948996
87 1 -0.73596 2 22.3859997 34.2024002 22.5599995
88 1 -0.781778 2 26.059 27.9946996 4.7547698
89 1 -0.690602 3 11.1641998 2.8233099 22.3983002
90 1 -0.707707 2 1.4758901 16.3603993 25.4115009
91 1 -0.733482 2 6.3915 16.7392006 15.9757004
92 1 -0.721849 2 5.2656498 9.0079098 5.1329999
93 1 -0.684141 2 17.5813999 27.8934002 26.8421994
94 1 -0.742925 2 1.58182 0.53807 15.5019999
95 1 -0.6986 2 7.84757 10.9506998 19.5872994
96 1 -0.715145 2 5.7213202 28.1639996 15.6234999
97 2 1.39925 4 4.0532398 14.5865002 17.0368004
98 1 -0.726317 2 21.6940003 25.3791008 12.5811005
99 2 1.3937301 4 17.6061001 25.4615002 17.0569992
100 2 1.45884 4 36.1963005 1.3844301 20.5184002
101 2 1.46959 4 27.9097996 28.1397991 20.3386002
102 2 1.17877 4 9.5641699 27.6921005 6.3189902
103 2 1.4309401 4 15.0646 27.9274006 3.66644
104 2 1.4331 5 28.1718998 13.5747996 16.4867993
105 2 1.48763 4 11.2259998 0.685104 30.3553009
106 1 -0.731997 2 35.9169006 22.1849995 0.960973
107 1 -0.73887 3 12.3312998 18.8766994 3.52702
108 1 -0.753164 2 34.5537987 28.4634991 26.8899002
109 1 -0.75652 2 8.2150498 4.7329502 7.1200099
110 1 -0.715733 2 16.8701 17.986601 28.0422993
111 1 -0.49543 3 3.5860701 19.4367008 34.5396004
112 1 -0.738476 2 22.4638996 25.5398999 7.06251
113 1 -0.655818 2 28.6408997 27.5886994 26.5797997
114 1 -0.768122 2 27.5783005 9.72645 27.8211003
115 1 -0.7375011 2 17.3335991 4.3654599 21.7534008
116 1 -0.735929 2 3.82336 29.6592999 14.7258997
117 1 -0.71924 2 28.2479 22.6769009 9.0307903
118 1 -0.691803 2 20.6375008 20.9794998 13.8020001
119 1 -0.736882 2 36.7452011 31.2700997 22.6243992
120 1 -0.724187 3 0.422638 14.3114996 16.8001004
121 2 1.47561 4 1.59443 1.67959 18.6762009
122 1 -0.703741 2 6.3337598 28.8108006 24.2936993
123 2 1.40616 4 13.7068005 10.9531002 7.9969502
124 2 1.48401 4 6.0265799 2.7904101 16.4421005
125 2 1.3795 4 24.6889992 29.6450005 15.9634
126 2 1.4413001 4 20.6425991 21.4057999 18.0666008
127 2 1.43843 4 16.7833004 0.802343 28.7430001
128 2 1.0685101 3 10.4033003 26.7409001 10.6703997
129 2 1.44909 4 23.7008991 16.5499993 8.3032398
130 1 -0.7287931 2 17.3589001 25.4936009 34.5866013
131 1 -0.717223 2 21.8516998 16.4106007 21.3703995
132 1 -0.713564 2 3.3427601 4.9772702 17.7968006
133 1 -0.73907 2 33.3809013 14.0910997 1.34654
134 1 -0.671396 2 12.4974003 3.7064801 2.3817301
135 1 -0.692567 2 1.8261301 12.6882 34.0522003
136 1 -0.741802 2 16.4958 31.2723007 1.40996
137 1 -0.751698 3 12.3294001 2.24265 0.512248
138 1 -0.570013 3 12.2966995 34.0102997 23.0415001
139 1 -0.744882 2 7.9878202 24.3087998 28.1947002
140 1 -0.753517 2 36.4407997 10.3625002 20.1380997
141 1 -0.710859 3 13.5456 7.7765498 15.4856005
142 1 -0.726197 2 27.7413006 18.7910004 3.0715301
143 1 -0.684733 2 30.7348004 29.2472992 17.7873001
144 1 -0.690551 2 6.22755 17.5428009 21.0270996
145 2 1.20578 4 -0.0047572 21.6354008 22.5277996
146 1 -0.709069 2 12.4674998 3.4428101 4.92133
147 2 1.09305 3 31.7649002 -0.0287507 9.7107296
148 2 1.4383201 4 17.5240994 18.8911992 26.8430996
149 2 1.12866 3 33.2512016 8.7983399 19.5578995
150 2 1.47182 4 21.5674992 29.4172993 11.8486996
151 2 1.4163801 4 14.7061005 14.8409004 4.07621
152 2 1.16578 3 24.4549008 26.3999004 17.5687008
153 2 1.37104 5 12.5579996 11.1877003 17.9200002
154 1 -0.526138 3 33.2807999 32.9336014 25.6629009
155 1 -0.768547 2 29.1795998 30.9601002 19.1096001
156 1 -0.711571 2 24.1096001 10.7805996 26.1261997
157 1 -0.664454 2 19.8335991 1.94265 4.1265898
158 1 -0.677809 2 1.6199501 0.113037 10.5323
159 1 -0.694948 3 29.5221005 13.6871004 2.58987
160 1 -0.755039 2 16.7653008 12.2079001 3.2660301
161 1 -0.56168 3 14.6187001 1.49174 19.2605991
162 1 -0.66356 2 3.0548101 25.7066002 3.89182
163 1 -0.7651111 2 18.6182995 29.8988 2.1874199
164 1 -0.696041 2 22.0809994 15.8614998 23.9216004
165 1 -0.688124 2 27.909401 14.6184998 1.13937
166 1 -0.712344 2 5.5935703 10.5031004 0.821855
167 1 -0.734246 2 20.2329998 1.72007 30.9571992
168 1 -0.701491 3 34.9009018 4.7886601 4.4903898
169 2 1.4820401 4 25.6466999 26.4486008 34.4392014
170 1 -0.682804 2 34.5069008 10.2493 15.6968003
171 2 1.45274 4 16.5105 19.9627 18.6301995
172 2 1.44258 4 8.4102802 25.1583996 29.4603997
173 2 1.20128 3 5.88723 32.7024994 26.8005009
174 2 1.40581 4 26.9230996 24.8251992 17.2094994
175 2 1.47866 4 30.3610993 30.1214008 33.3590012
176 2 1.39982 4 6.3674402 30.7661 9.4703598
177 2 1.5035501 4 2.1124799 9.1638298 10.0031004
178 1 -0.700419 2 21.6201 14.2195997 28.7029
179 1 -0.689226 2 1.0676301 15.4930001 28.9465008
180 1 -0.76093 2 16.903 6.0689001 18.7425995
181 1 -0.733963 2 5.2845202 29.5862999 27.6562996
182 1 -0.748002 3 23.0510998 19.3495007 20.5807991
183 1 -0.723524 2 7.4762903 28.3129997 12.5213003
184 1 -0.720986 2 1.05551 27.1592007 21.3143997
185 1 -0.638147 3 17.094101 29.4288998 12.0122004
186 1 -0.703631 2 15.3262997 5.6057301 33.8941002
187 1 -0.633471 2 4.8382602 20.0352001 15.8900996
188 1 -0.75878 2 27.8237992 3.2258 17.8187008
189 1 -0.696426 2 30.9309006 21.0123005 16.3066006
190 1 -0.774943 2 11.1148005 8.3848601 5.1159902
191 1 -0.7531981 2 0.228763 6.04322 8.6618901
192 1 -0.728147 2 17.6068993 4.4721699 16.6853009
193 2 1.4667 4 21.0223007 16.5748005 20.0188999
194 1 -0.702507 2 10.3392 17.926901 30.2465992
195 2 1.45326 4 5.35428 20.8400002 30.4043007
196 2 1.4492101 4 30.2576008 0.298016 33.1884003
197 2 1.40328 4 7.3454299 1.89701 8.5173102
198 2 1.414 5 23.3523998 6.6033602 31.7826004
199 2 1.4749 4 22.2371998 2.14974 6.6913901
200 2 1.34797 5 34.0847015 28.1499996 2.4912801
201 2 1.49764 4 24.6261997 14.6627999 32.3317986
202 1 -0.670278 2 30.8316994 9.6448403 24.8528996
203 1 -0.656817 3 23.5165005 5.22679 30.8572998
204 1 -0.638647 3 13.5317002 23.4487992 2.42588
205 1 -0.718436 2 2.09166 24.4500008 10.3643999
206 1 -0.714532 2 14.6707001 15.9248 22.1170998
207 1 -0.743694 2 3.07282 9.1240997 11.3107004
208 1 -0.7235371 2 6.3865399 30.2794991 7.9112302
209 1 -0.712569 2 20.7196999 16.7038994 26.1938992
210 1 -0.669723 2 21.9039994 17.4778996 19.0093002
211 1 -0.705819 2 26.6874008 12.9718 22.3665009
212 1 -0.720214 2 6.7156 8.6429997 34.6570015
213 1 -0.712998 3 0.504155 4.5028401 4.7241903
214 1 -0.546022 3 6.7730899 6.0057502 8.9999
215 1 -0.7629071 2 2.12742 30.5151997 17.5991993
216 1 -0.708701 2 10.5593996 19.9944992 28.6926003
217 2 1.43032 4 34.0085983 7.1075702 25.9738008
218 1 -0.695645 2 1.67835 21.4172993 0.662087
219 2 1.40296 4 10.7299004 20.2915001 12.8845998
220 2 1.44968 4 30.8598996 10.698 0.895878
221 2 1.43853 5 0.255598 28.0396004 1.7337801
222 2 1.4269201 4 9.2364998 25.5825997 0.804402
223 2 1.45709 4 8.5698004 23.0055008 27.4556999
224 2 1.15684 3 0.895176 29.7544995 9.2173796
225 2 1.52432 4 25.6096993 18.1935997 33.7612
226 1 -0.735103 2 3.3933599 30.5235005 29.4242001
227 1 -0.705999 2 36.2318993 6.3656201 31.4011002
228 1 -0.736818 2 12.0100002 20.0200005 9.9958096
229 1 -0.714082 2 19.7273007 29.9801998 20.4251004
230 1 -0.6943161 2 30.1651001 24.8419 19.1004009
231 1 -0.743088 2 18.0205994 7.0581498 3.0857501
232 1 -0.696478 2 34.2967987 21.3796005 2.6317101
233 1 -0.699326 3 26.4484997 10.0845003 25.5587998
234 1 -0.544401 3 33.6780014 32.6231995 33.974701
235 1 -0.685376 2 15.3028002 20.9641 34.1764984
236 1 -0.729957 2 32.1105995 10.9869004 7.7105799
237 1 -0.728768 2 8.99858 21.8941002 4.87525
238 1 -0.728915 2 0.779178 29.4013996 2.4809401
239 1 -0.750367 2 0.585583 17.4766999 3.1844399
240 1 -0.7003171 2 12.3106003 23.4857998 15.8934002
241 2 1.43373 4 15.5281 12.6274996 2.34548
242 1 -0.762233 2 3.9133502 31.0900002 21.4958
243 2 1.3715201 4 27.3910999 6.06358 12.8219996
244 2 1.39753 4 30.5795002 11.2867003 8.1951304
245 2 1.43655 4 20.9400998 18.2579003 31.5298004
246 2 1.3738001 4 3.8088401 19.3857994 20.2269001
247 2 1.45644 4 7.5960202 19.5594998 12.8028002
248 2 1.44497 4 4.8567 15.7292004 29.2903996
249 2 1.5157 4 2.4588399 21.2404995 12.8726998
250 1 -0.692228 2 30.7814007 9.7818203 16.9398994
251 1 -0.721121 2 24.1226997 7.98734 13.0344
252 1 -0.757518 2 27.0883007 14.8542996 26.7322006
253 1 -0.742424 2 4.0411801 7.98525 13.6999998
254 1 -0.675096 2 25.4274998 20.0088005 11.6886997
255 1 -0.749272 2 0.5802771 9.2541504 10.4820996
256 1 -0.7164091 3 7.2050901 15.2613001 7.8404198
257 1 -0.781228 2 36.848999 14.2326002 21.3799
258 1 -0.741424 3 13.5199003 7.4830699 5.24891
259 1 -0.718706 2 23.2201996 21.0344009 34.7088013
260 1 -0.733478 2 14.4598999 31.8971996 29.8957006
261 1 -0.648777 3 27.3682003 30.4577008 13.7797003
262 1 -0.785648 2 16.7588005 19.8875008 17.0697002
263 1 -0.716891 2 23.2828007 19.4333992 17.9440002
264 1 -0.747048 2 5.9765 3.45817 22.2299004
265 2 1.40714 4 34.0480995 23.6620007 17.0007
266 1 -0.673252 2 3.5173099 21.8181992 2.6391001
267 2 1.3738101 5 5.9724002 23.5081005 13.6313
268 2 1.35419 4 26.1044998 30.4911003 9.5297299
269 2 1.23831 4 26.7574997 13.1773005 4.6500502
270 2 1.3760901 4 11.3719998 18.7059994 29.2735996
271 2 1.44053 4 6.9654198 1.6299501 24.5219002
272 2 1.40293 4 18.0753002 11.3045998 3.1242099
273 2 1.43294 4 24.6513996 16.8950996 28.6863003
274 1 -0.715591 2 28.7796994 21.5615998 3.16592
275 1 -0.751384 2 17.1809006 5.86473 5.3373799
276 1 -0.730371 2 35.1226006 9.36271 22.0685005
277 1 -0.655928 2 24.9664994 11.4940005 23.7201996
278 1 -0.698412 2 33.6917 11.6438999 22.6574993
279 1 -0.744294 2 20.5970993 30.2056999 15.3320999
280 1 -0.66851 2 6.7537599 23.2315006 12.2475004
281 1 -0.781612 2 5.5159002 5.33289 2.70135
282 1 -0.7171271 2 14.7786999 3.1626599 17.1697006
283 1 -0.75349 2 22.0450993 30.6114998 27.3465004
284 1 -0.74281 2 21.5608006 27.8349991 12.1028996
285 1 -0.716714 2 26.0149002 27.5853997 26.3932991
286 1 -0.719754 2 19.7537003 13.3035002 12.4675999
287 1 -0.718497 3 36.0610008 12.3908997 15.3048
288 1 -0.671778 3 32.9300996 22.0368996 27.9020004
289 2 1.38465 4 30.2187996 29.9020996 30.3421002
290 1 -0.698486 2 19.2726002 27.5632 24.6805992
291 2 1.43723 4 23.9416008 28.3036003 30.5007992
292 2 1.11501 3 14.5593996 1.06186 3.96081
293 2 1.39664 4 4.3021898 11.1885996 1.5438401
294 2 1.38193 4 34.2116013 31.2759991 2.7056501
295 2 1.454 4 17.8251992 13.7054997 17.8537006
296 2 1.43206 4 3.3810001 13.2791996 29.8540002
297 2 1.4308601 4 27.7194996 5.1401701 21.0163002
298 1 -0.737738 3 34.4301987 2.50261 12.9870006
299 1 -0.733024 2 17.2859993 18.7980004 30.4640999
300 1 -0.744513 2 21.0228996 26.4108009 0.354087
301 1 -0.596211 3 5.2960701 9.7695599 18.4584008
302 1 -0.751088 2 21.2751999 14.3563995 31.2912998
303 1 -0.721193 2 32.6814003 25.2327004 3.3824401
304 1 -0.679106 2 30.6639004 16.2926998 33.0264015
305 1 -0.735886 2 14.6043997 0.364624 0.388861
306 1 -0.728934 2 19.441 25.1389008 25.8721008
307 1 -0.720971 2 22.4986992 2.57597 3.0736699
308 1 -0.715629 2 19.2371006 22.2226009 18.2689991
309 1 -0.7520491 2 34.1615982 10.1815996 30.845501
310 1 -0.786637 2 16.1851997 21.5585003 15.0551004
311 1 -0.727908 2 15.3416004 2.8425702 1.1789
312 1 -0.750189 2 0.660426 4.9742098 18.4845009
313 2 1.5009101 4 21.0307999 2.13744 12.7374001
314 1 -0.677225 2 30.1604996 18.911501 32.0242996
315 2 1.38375 5 20.0827999 21.2360993 1.41457
316 2 1.28829 4 33.0477982 18.2544994 15.7256003
317 2 1.54306 4 16.1408997 7.1251001 19.5762005
318 2 1.3324 4 5.4486499 12.0113001 28.2234001
319 2 1.4975 4 3.26667 29.6394997 21.7082005
320 2 1.43221 4 18.0799999 28.0445004 30.5921994
321 2 1.42443 4 14.9863998 19.6086006 35.0368004
322 1 -0.734839 2 36.8111 18.0415993 24.0028
323 1 -0.478212 3 25.719101 7.6325403 25.9536
324 1 -0.689703 2 17.3470993 16.7826996 20.4428005
325 1 -0.7463261 2 6.42693 15.2765999 29.2784996
326 1 -0.712822 2 17.5524006 15.389 8.7249203
327 1 -0.673947 3 33.0628014 7.3080902 12.5703001
328 1 -0.702788 2 24.7567005 2.47505 23.865101
329 1 -0.7186311 2 8.7216902 3.7407201 22.2682991
330 1 -0.723327 2 12.1933003 11.1350002 8.5029001
331 1 -0.752037 2 1.7546901 15.6120997 7.96521
332 1 -0.68747 2 13.9632998 2.1563599 8.9894506
333 1 -0.739309 2 25.3899002 11.1553001 16.8833008
334 1 -0.737548 2 4.5032802 12.6392002 2.2546301
335 1 -0.720785 2 17.1730003 20.4403992 27.1550007
336 1 -0.696699 2 34.3419991 6.0079598 8.18328
337 2 1.4279601 4 21.5186997 15.5642004 25.4237004
338 1 -0.697645 2 21.1882 32.9609986 6.9887
339 2 1.42926 4 31.0865002 33.8532982 21.1765003
340 2 1.40252 4 17.1807003 5.9204302 17.1590996
341 2 1.2431001 4 12.6324997 15.5545998 10.0923004
342 2 1.40812 4 18.3523998 17.7303009 19.5529003
343 2 1.5365401 4 16.9487 6.0953498 3.7893901
344 2 1.38857 4 24.5732994 9.2741604 12.0869999
345 2 1.45901 4 21.8855992 29.4564991 34.993
346 1 -0.735951 2 9.2217398 24.0988998 30.3677998
347 1 -0.7641011 2 29.6415997 17.9785996 34.4810982
348 1 -0.635455 4 25.9834996 30.2735996 33.402401
349 1 -0.792236 2 36.4878006 21.052 15.7214003
350 1 -0.783303 2 3.2115901 28.1026993 32.8900986
351 1 -0.71366 2 26.2434998 25.4288006 5.3468399
352 1 -0.664522 2 27.0874996 26.7740994 28.5359993
353 1 -0.674859 2 8.1977997 24.8437004 1.78351
354 1 -0.724225 2 20.9832994 20.7210999 5.1219401
355 1 -0.730012 2 33.846199 3.9191302 20.5056992
356 1 -0.777427 2 30.4549008 33.0138016 19.974001
357 1 -0.690528 2 21.9197006 3.78213 26.2194996
358 1 -0.702345 2 0.391531 23.0526009 16.8447
359 1 -0.705958 2 4.6672702 26.1208 9.3680401
360 1 -0.729555 2 1.16517 19.1347008 17.8882008
361 2 1.3984 4 32.2178002 5.5855899 2.0957
362 1 -0.735246 2 28.0018997 0.27752 15.415
363 2 1.4346 4 3.60726 29.7672005 10.6606999
364 2 1.28661 4 8.93715 5.3867998 0.113601
365 2 1.35515 4 15.7327004 34.1450996 21.5181008
366 2 1.51984 4 24.0337009 23.1345005 14.7861004
367 2 1.5125901 4 25.2782993 1.62043 13.2742996
368 2 1.45029 4 29.3584995 12.7242003 30.0559998
369 2 1.10795 3 13.7593003 21.1189995 26.2194996
370 1 -0.713409 2 9.7181101 32.4627991 19.5909996
371 1 -0.718494 2 35.8616982 14.3594999 12.1447001
372 1 -0.657324 2 8.9006396 1.38543 8.0650702
373 1 -0.740994 2 22.4789009 12.0983 4.5903702
374 1 -0.742142 2 12.0836 19.8925 7.3127599
375 1 -0.749054 2 25.7324009 4.2829499 9.8790998
376 1 -0.249815 2 30.1623993 2.75648 6.4602199
377 1 -0.65652 2 26.6903 20.1951008 14.1872997
378 1 -0.723764 2 7.0991902 17.916401 6.97572
379 1 -0.726717 2 16.9531994 17.8141003 9.7751303
380 1 -0.724663 2 25.6226998 13.5563002 8.1117802
381 1 -0.674175 2 7.8508402 0.356766 31.0118999
382 1 -0.775492 2 18.4932995 19.9494 9.5264502
383 1 -0.78314 2 30.1366005 14.6655998 35.2002983
384 1 -0.465373 4 12.0614996 9.4243698 18.7614002
385 2 1.5020601 4 6.7362399 11.6893997 24.3215008
386 1 -0.729187 2 10.4504004 7.3726602 25.4927006
387 2 1.4711 4 3.31196 25.1222 35.4799996
388 2 1.48398 4 7.7020102 15.6967001 28.3939991
389 2 1.43971 4 22.1490002 28.4561005 8.93112
390 2 1.3328201 4 18.3199005 13.7142 31.3677998
391 2 1.43216 5 28.3139992 24.9459 24.0160007
392 2 1.40372 4 28.6063996 23.2476006 21.4771996
393 2 1.48562 4 17.4281006 0.491375 16.5027008
394 1 -0.718238 2 35.0858002 0.284228 20.5277004
395 1 -0.687084 2 33.8662988 24.3673992 22.7563992
396 1 -0.707448 2 25.8619996 1.91334 9.5132504
397 1 -0.700597 2 27.4613991 10.4335003 15.1892004
398 1 -0.708186 2 32.8597984 9.14538 23.2105999
399 1 -0.752998 2 28.5338002 20.1543007 8.5319596
400 1 -0.713609 2 27.7730999 21.8971004 21.6177998
401 1 -0.716054 2 32.0956001 22.6863003 33.8367005
402 1 -0.784018 2 28.6895008 9.9421502 4.7119298
403 1 -0.748717 2 29.6853009 11.4240999 35.6459008
404 1 -0.528135 3 26.0163994 11.9698 13.0979996
405 1 -0.739799 2 11.7510004 12.0170002 33.5578003
406 1 -0.715811 2 29.5543995 1.1284 17.8677998
407 1 -0.772056 2 32.25 30.6742993 21.5112992
408 1 -0.697333 2 11.5986996 0.407483 34.2408981
409 2 1.49875 4 1.77227 1.5767401 9.92054
410 1 -0.705935 2 16.5501004 -0.0120115 22.9162998
411 2 1.43198 4 1.56486 33.5253983 15.8252001
412 2 1.50604 4 25.5949993 19.8575002 25.7747002
413 2 1.44994 4 10.3561001 9.51048 11.6978998
414 2 1.3917101 4 28.1975002 17.2695007 34.6837006
415 2 1.43193 4 33.0858994 25.2488003 1.8096401
416 2 1.45478 4 21.4929009 6.4362202 4.7096
417 2 1.4570201 4 11.0544996 3.2851701 15.8435002
418 1 -0.492335 3 34.9468002 33.5904999 25.3859997
419 1 -0.563102 3 28.4764004 8.1329403 35.1264
420 1 -0.675112 2 15.8898002 16.0273991 32.6724015
421 1 -0.931974 3 13.8251 31.6033993 11.7319002
422 1 -0.749022 2 16.6406994 11.5292998 34.5261994
423 1 -0.76314 2 26.5023995 8.8737402 32.4558983
424 1 -0.776002 2 1.93018 27.3118992 28.4808007
425 1 -0.644401 3 6.86939 13.2719002 19.6109009
426 1 -0.719342 2 12.4989996 29.3941002 33.6615982
427 1 -0.755989 2 25.1697998 22.0648994 14.3894997
428 1 -0.743388 2 8.6645899 13.1185999 8.5036898
429 1 -0.729003 2 8.9750404 33.4123001 24.5016995
430 1 -0.708461 2 30.5223007 7.1121802 16.2978993
431 1 -0.7314191 2 11.7030001 13.8782998 31.4300003
432 1 -0.53041 3 33.429699 26.7374001 29.5827999
433 2 1.49518 4 20.7667008 29.9832002 16.8752004
434 1 -0.661201 2 25.8913994 3.71941 7.5084901
435 2 1.4052301 4 15.6685 22.5137997 34.3991013
436 2 1.50218 4 0.813221 28.0195007 27.6704006
437 2 1.42494 4 19.0785999 14.7370997 4.6211901
438 2 1.37996 4 35.8442002 8.6417399 3.2258999
439 2 1.3661701 4 14.9758998 24.0261002 31.7604008
440 2 1.12739 3 36.3965988 26.6313 13.6527004
441 2 1.423 4 31.1842995 0.232281 27.8153
442 1 -0.716008 2 25.6786995 33.8153 6.8605
443 1 -0.748921 2 8.0513802 9.0586395 21.2985993
444 1 -0.704588 2 31.1882 33.1324005 3.9286302
445 1 -0.768411 2 18.5387993 24.6709004 32.2694016
446 1 -0.732387 2 7.1771698 32.9766998 3.7033801
447 1 -0.639354 2 10.5185004 28.3057995 7.47891
448 1 -0.810771 2 36.5105019 30.4214993 9.9999
449 1 -0.70859 2 31.2052002 11.8831998 27.2949009
450 1 -0.7120731 2 6.5218601 11.8739004 17.2031002
451 1 -0.741581 2 26.3040009 13.6198998 19.7714997
452 1 -0.73582 2 23.2707996 29.9566994 22.9158994
453 1 -0.7374341 2 7.6933899 1.33972 25.9130994
454 1 -0.762776 2 14.1554003 14.1056995 31.7938996
455 1 -0.665457 2 0.296174 30.5356999 33.3905983
456 1 -0.767405 2 22.8696004 20.5930004 7.91155
457 2 1.47796 4 23.2373009 21.2612991 29.156601
458 1 -0.697288 2 6.19943 30.469101 16.3929005
459 2 1.38731 4 9.8365803 31.5758 18.2334995
460 2 1.41984 4 14.3605003 27.0324001 0.95974
461 2 1.44379 4 3.2156601 20.2558994 15.7580996
462 2 1.4643901 4 6.6956702 17.6819992 5.4231801
463 2 1.38333 4 13.6975003 17.6373005 30.6994
464 2 1.42162 4 6.0625701 12.3743 5.2902398
465 2 1.40457 4 20.1047993 20.9475002 32.467701
466 1 -0.686068 2 31.1518993 0.630311 8.3862896
467 1 -0.75168 2 4.97087 13.0537005 27.1194
468 1 -0.685979 2 31.5953007 8.9654504 5.92382
469 1 -0.711654 2 23.0191994 9.86193 20.8859998
470 1 -0.739644 2 21.8400994 3.4333401 13.1253996
471 1 -0.710651 2 3.59952 4.92453 28.5793991
472 1 -0.7190171 2 35.4700012 29.1144009 23.5746994
473 1 -0.718386 2 5.2744398 31.853201 6.0186701
474 1 -0.491727 3 8.3052101 14.8521004 24.7663994
475 1 -0.729418 2 32.6842003 7.9488902 25.6602001
476 1 -0.717676 2 3.3917899 19.3670006 1.6261801
477 1 -0.722142 2 15.0026999 17.4533997 29.7749996
478 1 -0.722466 2 1.21406 21.1501007 31.2425003
479 1 -0.753968 2 20.1019001 18.7640991 24.658701
480 1 -0.717994 2 13.8974 20.2266007 5.36653
481 2 1.41221 4 17.6819992 6.8217402 11.0641003
482 1 -0.684136 2 12.5809002 32.5974007 6.04072
483 2 1.4732701 4 32.7885018 3.3499801 16.6837006
484 2 1.3971601 4 23.4293003 4.0037999 26.8652
485 2 1.26904 4 11.8728 4.8811798 33.3401985
486 2 1.1730501 4 32.5354996 14.7490998 25.5484009
487 2 1.4458 4 26.6347008 8.7618304 19.030899
488 2 1.4193 4 15.7215996 29.2089996 31.9971008
489 2 1.28178 4 12.8834 33.5112 24.4892998
490 1 -0.717656 2 21.7579994 28.1280994 34.0662003
491 1 -0.726564 2 10.1412001 29.5126992 21.1476994
492 1 -0.68327 2 23.0891991 10.2292996 -0.0449092
493 1 -0.6951911 2 13.9382 2.39746 26.1448002
494 1 -0.726449 2 20.8222008 7.2393298 12.8841
495 1 -0.687003 2 31.1709004 5.4149499 28.5128994
496 1 -0.71257 2 10.8291998 18.2164002 8.6684399
497 1 -0.660446 3 17.2057991 3.1594901 11.9407998
498 1 -0.716691 2 31.7656994 13.9396 33.2108002
499 1 -0.736314 2 29.2455006 16.6387997 2.4201401
500 1 -0.73534 2 22.3722992 0.737946 7.4144702
501 1 -0.766958 2 11.4855004 28.9944992 23.2285996
502 1 -0.7147571 2 4.6115399 32.0009003 31.0967999
503 1 -0.720331 2 36.7589989 2.7908299 26.4113007
504 1 -0.704997 3 14.6244002 18.7908993 3.1775501
505 2 1.38807 4 1.74971 14.7709999 25.5559006
506 1 -0.685802 2 3.07248 28.8118992 20.3703995
507 2 1.36229 5 1.71601 19.2966004 27.8327999
508 2 1.41782 4 23.0174999 5.7999401 18.0601006
509 2 1.5146801 4 22.7071991 20.1473999 0.420579
510 2 1.41978 4 27.1389999 2.18208 21.3146
511 2 1.05995 3 14.6900997 31.8216 23.1390991
512 2 1.36078 5 28.0415001 9.7880402 21.5109005
513 2 1.45248 4 16.5526009 1.96065 5.9211502
514 1 -0.724001 2 28.6177006 21.3612003 28.5485993
515 1 -0.713563 2 5.6321802 6.6907101 21.0445995
516 1 -0.731309 2 27.6907006 12.0885 5.30934
517 1 -0.695804 2 3.31391 14.3848 25.6397
518 1 -0.738761 2 10.0868998 25.0755005 32.5707016
519 1 -0.691326 3 0.582204 26.5499001 10.2648001
520 1 -0.697729 2 19.4081001 27.9435006 6.79493
521 1 -0.754023 2 25.2117996 17.2968998 35.0056
522 1 -0.697343 2 4.7631102 6.5830403 23.5783005
523 1 -0.746802 2 16.2651997 13.3213997 18.0272007
524 1 -0.649894 2 6.2464399 21.9519998 31.2203999
525 1 -0.674701 2 29.5077992 34.1795006 13.3242998
526 1 -0.715191 3 35.1716003 11.5536003 1.04755
527 1 -0.70857 2 31.7490006 34.0891991 17.2905007
528 1 -0.711499 2 33.5623017 2.96326 15.3290005
529 2 1.09262 3 17.6728001 15.8556004 21.7499008
530 1 -0.698595 2 9.4840098 1.91909 18.3146992
531 2 1.40963 4 29.2749996 22.3330994 29.6935005
532 2 1.39009 5 12.3548002 16.0263996 5.3446398
533 2 1.43997 4 29.5988007 26.6898003 5.3596001
534 2 1.4921201 4 35.9723016 3.96822 5.3491402
535 2 1.36209 4 18.8122006 0.682078 4.5830102
536 2 1.37496 4 30.8167 33.6319008 12.4573002
537 2 1.40323 4 18.2698994 1.9281 11.8970004
538 1 -0.764875 3 24.0030994 13.3532 27.7353001
539 1 -0.724592 2 27.9181004 17.4808998 19.0578003
540 1 -0.739597 2 19.1534996 23.9109002 34.7036019
541 1 -0.703239 2 2.3225401 19.3882008 29.3691998
542 1 -0.708588 2 36.0301018 12.5790997 34.3933983
543 1 -0.640311 2 20.1770001 14.3593998 1.06433
544 1 -0.721364 2 26.3318005 5.1916599 5.1461501
545 1 -0.724189 2 1.23241 2.7349501 24.1079006
546 1 -0.696635 2 7.1262202 19.8946992 14.2823
547 1 -0.727052 2 4.35004 0.368385 34.1094017
548 1 -0.701904 2 33.4230004 31.5650006 4.1286998
549 1 -0.714706 2 26.0296993 14.9141998 31.6056004
550 1 -0.530098 3 30.7700005 17.7287998 26.4022999
551 1 -0.728099 2 28.1520996 26.8547002 6.1679101
552 1 -0.876885 3 33.0281982 18.0923004 22.2453003
553 2 1.46163 4 27.0711994 13.9673004 21.1147995
554 1 -0.696129 2 5.1051698 29.1730995 5.82585
555 2 1.43362 4 19.7826996 20.0886002 6.0367899
556 2 1.14202 3 16.7159996 12.2831001 21.1672993
557 2 1.4868701 4 21.9307004 25.5028992 8.5618601
558 2 1.4600001 4 35.9077988 11.0060997 16.0095005
559 2 1.17592 4 0.823947 15.8836002 2.7679601
560 2 1.3965501 4 6.0254102 30.4452992 6.2750001
561 2 1.44615 4 3.50137 33.4510002 13.5872002
562 1 -0.664657 2 29.0433998 24.0503998 25.2509003
563 1 -0.681138 2 16.7684994 6.95254 21.0317993
564 1 -0.756658 2 8.2797804 9.9827604 30.990101
565 1 -0.711007 3 19.9218006 18.5028992 6.1052299
566 1 -0.71941 2 13.9943 11.9445 17.8929996
567 1 -0.73734 2 28.6049004 11.7838002 13.2819996
568 1 -0.687227 2 35.6465988 26.0650997 14.9469004
569 1 -0.736217 2 13.8598004 2.53861 30.573
570 1 -0.69408 2 9.7779198 33.8252983 3.88675
571 1 -0.702527 2 15.7468004 16.8591996 7.6327
572 1 -0.686731 2 9.91918 29.0715008 28.8649998
573 1 -0.721523 2 3.6684599 24.1406994 23.5219994
574 1 -0.698139 2 35.8506012 10.9849998 17.6455994
575 1 -0.72054 2 10.1520996 1.94899 15.8419
576 1 -0.731159 2 23.9617004 8.8761196 4.1883798
577 2 1.48719 4 31.1660996 22.3862991 17.1550007
578 1 -0.762781 3 22.9515 21.6518994 20.7730007
579 2 1.42002 4 35.9557992 9.8234196 18.7353001
580 2 1.33473 4 29.2658997 12.1948004 20.1313992
581 2 1.5000201 4 4.4110699 18.0653992 9.7552996
582 2 1.43383 4 11.3818998 17.4015007 12.1479998
583 2 1.1102901 4 1.0181 9.2643805 30.2779007
584 2 1.36197 4 6.97886 17.1664009 8.3702498
585 2 1.49703 4 20.9251004 30.3598995 26.2131004
586 1 -0.711068 2 24.2176991 33.1804009 29.8897992
587 1 -0.740656 2 20.7357998 30.9151994 22.7243996
588 1 -0.715062 2 0.147312 24.0543003 11.8948002
589 1 -0.543046 3 6.2558699 13.6313 34.2257004
590 1 -0.745285 2 8.8062496 26.0499992 20.9818002
591 1 -0.554158 3 7.3231502 12.0228004 34.6389008
592 1 -0.711665 2 15.0077 19.599001 19.0713997
593 1 -0.710671 2 7.2815099 24.8491002 17.2397995
594 1 -0.635549 2 26.1611004 31.764 8.4408703
595 1 -0.806574 2 18.1700001 13.8925 19.4466992
596 1 -0.470789 3 8.6059704 14.3402004 23.1755009
597 1 -0.704225 2 13.7701998 11.8832998 6.6701298
598 1 -0.722987 2 14.5511999 24.4601994 18.7765999
599 1 -0.61825 2 0.458153 14.9288998 34.3106003
600 1 -0.706641 2 31.0830002 3.03917 25.2595005
601 2 1.4472701 4 21.0795994 5.6284199 9.1052103
602 1 -0.777371 2 34.8600006 9.83986 3.01196
603 2 1.25698 4 24.8300991 29.4023991 34.9804994
604 2 1.11423 3 3.26719 4.9635802 32.2578011
605 2 1.38467 5 26.4584999 20.9461002 33.3809013
606 2 1.42923 4 27.6196995 4.28438 27.7192002
607 2 1.42397 4 14.5786 10.5950003 13.2617998
608 2 1.4652601 4 10.7171002 2.92061 18.7024002
609 2 1.47819 4 12.4538002 22.2716999 2.5845001
610 1 -0.713226 2 36.6843987 23.3829994 31.9451008
611 1 -0.739728 2 5.53896 26.9256992 32.1744003
612 1 -0.710085 2 30.7381993 29.1709995 34.6049996
613 1 -0.70456 2 36.9017982 15.3671999 1.4272601
614 1 -0.741847 2 15.9048996 27.1947994 0.504295