# System description #######################
#

1520  atoms
3 atom types
0 25.7525 xlo xhi
0 25.720611 ylo yhi
0 26.5865  zlo zhi
#
# for a crystal:
# lx=a;  ly2+xy2=b2;  lz2+xz2+yz2=c2
# xz=c*cos(beta);  xy=b*cos(gamma)
# xy*xz+ly*yz=b*c*cos(alpha)
#

# Elements #################################

Masses

1 1.00794
2 15.9994
3 91.2240

Atoms
# number types charges
   1 3  0    1.24079   0.20586   1.09325
   2 2  0     0.06655   1.72869   1.80914
   3 2  0     1.90696   3.94466   2.51506
   4 3  0    3.48327   2.81166   1.53097
   5 3  0    3.05682   5.00574   4.15520
   6 3  0    0.81435   2.39994   3.71748
   7 2  0     4.65751   4.33449   0.81508
   8 2  0     4.23107   3.48291   3.43931
   9 2  0    -0.35990   0.87711   4.43337
  10 2  0     2.81709   1.33886   0.10917
  11 2  0     2.39065   1.26694   2.73339
  12 2  0     1.48052   3.87274   5.13929
  13 3  0    0.38791   0.20586   6.34171
  14 2  0    -0.78634   1.72869   7.05760
  15 2  0     1.05408   3.94466   7.76351
  16 3  0    2.63038   2.81166   6.77943
  17 3  0    2.20394   5.00574   9.40365
  18 3  0   -0.03854   2.39994   8.96593
  19 2  0     3.80463   4.33449   6.06354
  20 2  0     3.37818   3.48291   8.68777
  21 2  0    -1.21278   0.87711   9.68182
  22 2  0     1.96421   1.33886   5.35762
  23 2  0     1.53777   1.26694   7.98185
  24 2  0     0.62763   3.87274   10.38774
  25 3  0   -0.46498   0.20586   11.59016
  26 2  0    -1.63922   1.72869   12.30605
  27 2  0     0.20119   3.94466   13.01197
  28 3  0    1.77750   2.81166   12.02788
  29 3  0    1.35105   5.00574   14.65211
  30 3  0   -0.89142   2.39994   14.21439
  31 2  0     2.95174   4.33449   11.31199
  32 2  0     2.52530   3.48291   13.93622
  33 2  0    -2.06567   0.87711   14.93028
  34 2  0     1.11133   1.33886   10.60607
  35 2  0     0.68488   1.26694   13.23030
  36 2  0    -0.22525   3.87274   15.63619
  37 3  0   -1.31786   0.20586   16.83861
  38 2  0    -2.49211   1.72869   17.55450
  39 2  0    -0.65169   3.94466   18.26042
  40 3  0    0.92461   2.81166   17.27633
  41 3  0    0.49817   5.00574   19.90056
  42 3  0   -1.74431   2.39994   19.46284
  43 2  0     2.09886   4.33449   16.56045
  44 2  0     1.67241   3.48291   19.18467
  45 2  0    -2.91855   0.87711   20.17873
  46 2  0     0.25844   1.33886   15.85453
  47 2  0    -0.16800   1.26694   18.47876
  48 2  0    -1.07814   3.87274   20.88465
  49 3  0   -2.17075   0.20586   22.08707
  50 2  0    -3.34499   1.72869   22.80296
  51 2  0    -1.50458   3.94466   23.50887
  52 3  0    0.07173   2.81166   22.52479
  53 3  0   -0.35472   5.00574   25.14901
  54 3  0   -2.59719   2.39994   24.71129
  55 2  0     1.24597   4.33449   21.80890
  56 2  0     0.81953   3.48291   24.43313
  57 2  0    -3.77144   0.87711   25.42718
  58 2  0    -0.59444   1.33886   21.10298
  59 2  0    -1.02089   1.26694   23.72721
  60 2  0    -1.93102   3.87274   26.13310
  61 3  0    1.24079   5.41746   1.09325
  62 2  0     0.06655   6.94029   1.80914
  63 2  0     1.90696   9.15626   2.51506
  64 3  0    3.48327   8.02326   1.53097
  65 3  0    3.05682   10.21734   4.15520
  66 3  0    0.81435   7.61154   3.71748
  67 2  0     4.65751   9.54609   0.81508
  68 2  0     4.23107   8.69451   3.43931
  69 2  0    -0.35990   6.08871   4.43337
  70 2  0     2.81709   6.55046   0.10917
  71 2  0     2.39065   6.47854   2.73339
  72 2  0     1.48052   9.08434   5.13929
  73 3  0    0.38791   5.41746   6.34171
  74 2  0    -0.78634   6.94029   7.05760
  75 2  0     1.05408   9.15626   7.76351
  76 3  0    2.63038   8.02326   6.77943
  77 3  0    2.20394   10.21734   9.40365
  78 3  0   -0.03854   7.61154   8.96593
  79 2  0     3.80463   9.54609   6.06354
  80 2  0     3.37818   8.69451   8.68777
  81 2  0    -1.21278   6.08871   9.68182
  82 2  0     1.96421   6.55046   5.35762
  83 2  0     1.53777   6.47854   7.98185
  84 2  0     0.62763   9.08434   10.38774
  85 3  0   -0.46498   5.41746   11.59016
  86 2  0    -1.63922   6.94029   12.30605
  87 2  0     0.20119   9.15626   13.01197
  88 3  0    1.77750   8.02326   12.02788
  89 3  0    1.35105   10.21734   14.65211
  90 3  0   -0.89142   7.61154   14.21439
  91 2  0     2.95174   9.54609   11.31199
  92 2  0     2.52530   8.69451   13.93622
  93 2  0    -2.06567   6.08871   14.93028
  94 2  0     1.11132   6.55046   10.60607
  95 2  0     0.68488   6.47854   13.23030
  96 2  0    -0.22525   9.08434   15.63619
  97 3  0   -1.31786   5.41746   16.83861
  98 2  0    -2.49211   6.94029   17.55450
  99 2  0    -0.65169   9.15626   18.26042
 100 3  0    0.92461   8.02326   17.27633
 101 3  0    0.49817   10.21734   19.90056
 102 3  0   -1.74431   7.61154   19.46284
 103 2  0     2.09886   9.54609   16.56045
 104 2  0     1.67241   8.69451   19.18467
 105 2  0    -2.91855   6.08871   20.17873
 106 2  0     0.25844   6.55046   15.85453
 107 2  0    -0.16800   6.47854   18.47876
 108 2  0    -1.07814   9.08434   20.88465
 109 3  0   -2.17075   5.41746   22.08707
 110 2  0    -3.34499   6.94029   22.80296
 111 2  0    -1.50458   9.15626   23.50887
 112 3  0    0.07173   8.02326   22.52479
 113 3  0   -0.35472   10.21734   25.14901
 114 3  0   -2.59719   7.61154   24.71129
 115 2  0     1.24597   9.54609   21.80890
 116 2  0     0.81953   8.69451   24.43313
 117 2  0    -3.77144   6.08871   25.42718
 118 2  0    -0.59445   6.55046   21.10298
 119 2  0    -1.02089   6.47854   23.72721
 120 2  0    -1.93102   9.08434   26.13310
 121 3  0    1.24079   10.62906   1.09325
 122 2  0     0.06655   12.15189   1.80914
 123 2  0     1.90696   14.36786   2.51506
 124 3  0    3.48326   13.23486   1.53097
 125 3  0    3.05682   15.42894   4.15520
 126 3  0    0.81435   12.82314   3.71748
 127 2  0     4.65751   14.75769   0.81508
 128 2  0     4.23107   13.90611   3.43931
 129 2  0    -0.35990   11.30031   4.43337
 130 2  0     2.81709   11.76206   0.10917
 131 2  0     2.39065   11.69014   2.73339
 132 2  0     1.48052   14.29594   5.13929
 133 3  0    0.38791   10.62906   6.34171
 134 2  0    -0.78634   12.15189   7.05760
 135 2  0     1.05408   14.36786   7.76351
 136 3  0    2.63038   13.23486   6.77943
 137 3  0    2.20394   15.42894   9.40365
 138 3  0   -0.03854   12.82314   8.96593
 139 2  0     3.80463   14.75769   6.06354
 140 2  0     3.37818   13.90611   8.68777
 141 2  0    -1.21278   11.30031   9.68182
 142 2  0     1.96421   11.76206   5.35762
 143 2  0     1.53777   11.69014   7.98185
 144 2  0     0.62763   14.29594   10.38774
 145 3  0   -0.46498   10.62906   11.59016
 146 2  0    -1.63922   12.15189   12.30605
 147 2  0     0.20119   14.36786   13.01197
 148 3  0    1.77750   13.23486   12.02788
 149 3  0    1.35105   15.42894   14.65211
 150 3  0   -0.89142   12.82314   14.21439
 151 2  0     2.95174   14.75769   11.31199
 152 2  0     2.52530   13.90611   13.93622
 153 2  0    -2.06567   11.30031   14.93028
 154 2  0     1.11132   11.76206   10.60607
 155 2  0     0.68488   11.69014   13.23030
 156 2  0    -0.22525   14.29594   15.63619
 157 3  0   -1.31786   10.62906   16.83861
 158 2  0    -2.49211   12.15189   17.55450
 159 2  0    -0.65169   14.36786   18.26042
 160 3  0    0.92461   13.23486   17.27633
 161 3  0    0.49817   15.42894   19.90056
 162 3  0   -1.74431   12.82314   19.46284
 163 2  0     2.09886   14.75769   16.56045
 164 2  0     1.67241   13.90611   19.18467
 165 2  0    -2.91855   11.30031   20.17873
 166 2  0     0.25844   11.76206   15.85453
 167 2  0    -0.16800   11.69014   18.47876
 168 2  0    -1.07814   14.29594   20.88465
 169 3  0   -2.17075   10.62906   22.08707
 170 2  0    -3.34499   12.15189   22.80296
 171 2  0    -1.50458   14.36786   23.50887
 172 3  0    0.07173   13.23486   22.52479
 173 3  0   -0.35472   15.42894   25.14901
 174 3  0   -2.59719   12.82314   24.71129
 175 2  0     1.24597   14.75769   21.80890
 176 2  0     0.81953   13.90611   24.43313
 177 2  0    -3.77144   11.30031   25.42718
 178 2  0    -0.59445   11.76206   21.10298
 179 2  0    -1.02089   11.69014   23.72721
 180 2  0    -1.93102   14.29594   26.13310
 181 3  0    1.24079   15.84066   1.09325
 182 2  0     0.06654   17.36349   1.80914
 183 2  0     1.90696   19.57946   2.51506
 184 3  0    3.48326   18.44646   1.53097
 185 3  0    3.05682   20.64054   4.15520
 186 3  0    0.81435   18.03474   3.71748
 187 2  0     4.65751   19.96929   0.81508
 188 2  0     4.23107   19.11771   3.43931
 189 2  0    -0.35990   16.51191   4.43337
 190 2  0     2.81709   16.97366   0.10917
 191 2  0     2.39065   16.90174   2.73339
 192 2  0     1.48052   19.50754   5.13929
 193 3  0    0.38791   15.84066   6.34171
 194 2  0    -0.78634   17.36349   7.05760
 195 2  0     1.05408   19.57946   7.76351
 196 3  0    2.63038   18.44646   6.77943
 197 3  0    2.20394   20.64054   9.40365
 198 3  0   -0.03854   18.03474   8.96593
 199 2  0     3.80463   19.96929   6.06354
 200 2  0     3.37818   19.11771   8.68777
 201 2  0    -1.21278   16.51191   9.68182
 202 2  0     1.96421   16.97366   5.35762
 203 2  0     1.53777   16.90174   7.98185
 204 2  0     0.62763   19.50754   10.38774
 205 3  0   -0.46498   15.84066   11.59016
 206 2  0    -1.63923   17.36349   12.30605
 207 2  0     0.20119   19.57946   13.01197
 208 3  0    1.77749   18.44646   12.02788
 209 3  0    1.35105   20.64054   14.65211
 210 3  0   -0.89142   18.03474   14.21439
 211 2  0     2.95174   19.96929   11.31199
 212 2  0     2.52530   19.11771   13.93622
 213 2  0    -2.06567   16.51191   14.93028
 214 2  0     1.11132   16.97366   10.60607
 215 2  0     0.68488   16.90174   13.23030
 216 2  0    -0.22525   19.50754   15.63619
 217 3  0   -1.31786   15.84066   16.83861
 218 2  0    -2.49211   17.36349   17.55450
 219 2  0    -0.65169   19.57946   18.26042
 220 3  0    0.92461   18.44646   17.27633
 221 3  0    0.49817   20.64054   19.90056
 222 3  0   -1.74431   18.03474   19.46284
 223 2  0     2.09886   19.96929   16.56045
 224 2  0     1.67241   19.11771   19.18467
 225 2  0    -2.91855   16.51191   20.17873
 226 2  0     0.25844   16.97366   15.85453
 227 2  0    -0.16800   16.90174   18.47876
 228 2  0    -1.07814   19.50754   20.88465
 229 3  0   -2.17075   15.84066   22.08707
 230 2  0    -3.34500   17.36349   22.80296
 231 2  0    -1.50458   19.57946   23.50887
 232 3  0    0.07172   18.44646   22.52479
 233 3  0   -0.35472   20.64054   25.14901
 234 3  0   -2.59719   18.03474   24.71129
 235 2  0     1.24597   19.96929   21.80890
 236 2  0     0.81953   19.11771   24.43313
 237 2  0    -3.77144   16.51191   25.42718
 238 2  0    -0.59445   16.97366   21.10298
 239 2  0    -1.02089   16.90174   23.72721
 240 2  0    -1.93102   19.50754   26.13310
 241 3  0    1.24079   21.05226   1.09325
 242 2  0     0.06654   22.57509   1.80914
 243 2  0     1.90696   24.79106   2.51506
 244 3  0    3.48326   23.65806   1.53097
 245 3  0    3.05682   25.85214   4.15520
 246 3  0    0.81435   23.24634   3.71748
 247 2  0     4.65751   25.18089   0.81508
 248 2  0     4.23107   24.32931   3.43931
 249 2  0    -0.35990   21.72351   4.43337
 250 2  0     2.81709   22.18526   0.10917
 251 2  0     2.39065   22.11334   2.73339
 252 2  0     1.48052   24.71914   5.13929
 253 3  0    0.38791   21.05226   6.34171
 254 2  0    -0.78634   22.57509   7.05760
 255 2  0     1.05408   24.79106   7.76351
 256 3  0    2.63038   23.65806   6.77943
 257 3  0    2.20394   25.85214   9.40365
 258 3  0   -0.03854   23.24634   8.96593
 259 2  0     3.80463   25.18089   6.06354
 260 2  0     3.37818   24.32931   8.68777
 261 2  0    -1.21278   21.72351   9.68182
 262 2  0     1.96421   22.18526   5.35762
 263 2  0     1.53777   22.11334   7.98185
 264 2  0     0.62763   24.71914   10.38774
 265 3  0   -0.46498   21.05226   11.59016
 266 2  0    -1.63923   22.57509   12.30605
 267 2  0     0.20119   24.79106   13.01197
 268 3  0    1.77749   23.65806   12.02788
 269 3  0    1.35105   25.85214   14.65211
 270 3  0   -0.89142   23.24634   14.21439
 271 2  0     2.95174   25.18089   11.31199
 272 2  0     2.52530   24.32931   13.93622
 273 2  0    -2.06567   21.72351   14.93028
 274 2  0     1.11132   22.18526   10.60607
 275 2  0     0.68488   22.11334   13.23030
 276 2  0    -0.22525   24.71914   15.63619
 277 3  0   -1.31786   21.05226   16.83861
 278 2  0    -2.49211   22.57509   17.55450
 279 2  0    -0.65169   24.79106   18.26042
 280 3  0    0.92461   23.65806   17.27633
 281 3  0    0.49817   25.85214   19.90056
 282 3  0   -1.74431   23.24634   19.46284
 283 2  0     2.09886   25.18089   16.56045
 284 2  0     1.67241   24.32931   19.18467
 285 2  0    -2.91855   21.72351   20.17873
 286 2  0     0.25844   22.18526   15.85453
 287 2  0    -0.16800   22.11334   18.47876
 288 2  0    -1.07814   24.71914   20.88465
 289 3  0   -2.17075   21.05226   22.08707
 290 2  0    -3.34500   22.57509   22.80296
 291 2  0    -1.50458   24.79106   23.50887
 292 3  0    0.07172   23.65806   22.52479
 293 3  0   -0.35472   25.85214   25.14901
 294 3  0   -2.59719   23.24634   24.71129
 295 2  0     1.24597   25.18089   21.80890
 296 2  0     0.81953   24.32931   24.43313
 297 2  0    -3.77144   21.72351   25.42718
 298 2  0    -0.59445   22.18526   21.10298
 299 2  0    -1.02089   22.11334   23.72721
 300 2  0    -1.93102   24.71914   26.13310
 301 3  0    6.39129   0.20586   1.09325
 302 2  0     5.21705   1.72869   1.80914
 303 2  0     7.05746   3.94466   2.51506
 304 3  0    8.63377   2.81166   1.53097
 305 3  0    8.20732   5.00574   4.15520
 306 3  0    5.96485   2.39994   3.71748
 307 2  0     9.80801   4.33449   0.81508
 308 2  0     9.38157   3.48291   3.43931
 309 2  0     4.79060   0.87711   4.43337
 310 2  0     7.96759   1.33886   0.10917
 311 2  0     7.54115   1.26694   2.73339
 312 2  0     6.63102   3.87274   5.13929
 313 3  0    5.53841   0.20586   6.34171
 314 2  0     4.36416   1.72869   7.05760
 315 2  0     6.20458   3.94466   7.76351
 316 3  0    7.78088   2.81166   6.77943
 317 3  0    7.35444   5.00574   9.40365
 318 3  0    5.11196   2.39994   8.96593
 319 2  0     8.95513   4.33449   6.06354
 320 2  0     8.52868   3.48291   8.68777
 321 2  0     3.93772   0.87711   9.68182
 322 2  0     7.11471   1.33886   5.35762
 323 2  0     6.68827   1.26694   7.98185
 324 2  0     5.77813   3.87274   10.38774
 325 3  0    4.68552   0.20586   11.59016
 326 2  0     3.51128   1.72869   12.30605
 327 2  0     5.35169   3.94466   13.01197
 328 3  0    6.92800   2.81166   12.02788
 329 3  0    6.50155   5.00574   14.65211
 330 3  0    4.25908   2.39994   14.21439
 331 2  0     8.10224   4.33449   11.31199
 332 2  0     7.67580   3.48291   13.93622
 333 2  0     3.08483   0.87711   14.93028
 334 2  0     6.26182   1.33886   10.60607
 335 2  0     5.83538   1.26694   13.23030
 336 2  0     4.92525   3.87274   15.63619
 337 3  0    3.83264   0.20586   16.83861
 338 2  0     2.65839   1.72869   17.55450
 339 2  0     4.49881   3.94466   18.26042
 340 3  0    6.07511   2.81166   17.27633
 341 3  0    5.64867   5.00574   19.90056
 342 3  0    3.40619   2.39994   19.46284
 343 2  0     7.24936   4.33449   16.56045
 344 2  0     6.82291   3.48291   19.18467
 345 2  0     2.23195   0.87711   20.17873
 346 2  0     5.40894   1.33886   15.85453
 347 2  0     4.98250   1.26694   18.47876
 348 2  0     4.07236   3.87274   20.88465
 349 3  0    2.97975   0.20586   22.08707
 350 2  0     1.80551   1.72869   22.80296
 351 2  0     3.64592   3.94466   23.50887
 352 3  0    5.22223   2.81166   22.52479
 353 3  0    4.79578   5.00574   25.14901
 354 3  0    2.55331   2.39994   24.71129
 355 2  0     6.39647   4.33449   21.80890
 356 2  0     5.97003   3.48291   24.43313
 357 2  0     1.37906   0.87711   25.42718
 358 2  0     4.55605   1.33886   21.10298
 359 2  0     4.12961   1.26694   23.72721
 360 2  0     3.21948   3.87274   26.13310
 361 3  0    6.39129   5.41746   1.09325
 362 2  0     5.21705   6.94029   1.80914
 363 2  0     7.05746   9.15626   2.51506
 364 3  0    8.63377   8.02326   1.53097
 365 3  0    8.20732   10.21734   4.15520
 366 3  0    5.96485   7.61154   3.71748
 367 2  0     9.80801   9.54609   0.81508
 368 2  0     9.38157   8.69451   3.43931
 369 2  0     4.79060   6.08871   4.43337
 370 2  0     7.96759   6.55046   0.10917
 371 2  0     7.54115   6.47854   2.73339
 372 2  0     6.63102   9.08434   5.13929
 373 3  0    5.53841   5.41746   6.34171
 374 2  0     4.36416   6.94029   7.05760
 375 2  0     6.20458   9.15626   7.76351
 376 3  0    7.78088   8.02326   6.77943
 377 3  0    7.35444   10.21734   9.40365
 378 3  0    5.11196   7.61154   8.96593
 379 2  0     8.95513   9.54609   6.06354
 380 2  0     8.52868   8.69451   8.68777
 381 2  0     3.93772   6.08871   9.68182
 382 2  0     7.11471   6.55046   5.35762
 383 2  0     6.68827   6.47854   7.98185
 384 2  0     5.77813   9.08434   10.38774
 385 3  0    4.68552   5.41746   11.59016
 386 2  0     3.51128   6.94029   12.30605
 387 2  0     5.35169   9.15626   13.01197
 388 3  0    6.92800   8.02326   12.02788
 389 3  0    6.50155   10.21734   14.65211
 390 3  0    4.25908   7.61154   14.21439
 391 2  0     8.10224   9.54609   11.31199
 392 2  0     7.67580   8.69451   13.93622
 393 2  0     3.08483   6.08871   14.93028
 394 2  0     6.26182   6.55046   10.60607
 395 2  0     5.83538   6.47854   13.23030
 396 2  0     4.92525   9.08434   15.63619
 397 3  0    3.83264   5.41746   16.83861
 398 2  0     2.65839   6.94029   17.55450
 399 2  0     4.49881   9.15626   18.26042
 400 3  0    6.07511   8.02326   17.27633
 401 3  0    5.64867   10.21734   19.90056
 402 3  0    3.40619   7.61154   19.46284
 403 2  0     7.24936   9.54609   16.56045
 404 2  0     6.82291   8.69451   19.18467
 405 2  0     2.23195   6.08871   20.17873
 406 2  0     5.40894   6.55046   15.85453
 407 2  0     4.98250   6.47854   18.47876
 408 2  0     4.07236   9.08434   20.88465
 409 3  0    2.97975   5.41746   22.08707
 410 2  0     1.80551   6.94029   22.80296
 411 2  0     3.64592   9.15626   23.50887
 412 3  0    5.22223   8.02326   22.52479
 413 3  0    4.79578   10.21734   25.14901
 414 3  0    2.55331   7.61154   24.71129
 415 2  0     6.39647   9.54609   21.80890
 416 2  0     5.97003   8.69451   24.43313
 417 2  0     1.37906   6.08871   25.42718
 418 2  0     4.55605   6.55046   21.10298
 419 2  0     4.12961   6.47854   23.72721
 420 2  0     3.21948   9.08434   26.13310
 421 3  0    6.39129   10.62906   1.09325
 422 2  0     5.21704   12.15189   1.80914
 423 2  0     7.05746   14.36786   2.51506
 424 3  0    8.63376   13.23486   1.53097
 425 3  0    8.20732   15.42894   4.15520
 426 3  0    5.96485   12.82314   3.71748
 427 2  0     9.80801   14.75769   0.81508
 428 2  0     9.38157   13.90611   3.43931
 429 2  0     4.79060   11.30031   4.43337
 430 2  0     7.96759   11.76206   0.10917
 431 2  0     7.54115   11.69014   2.73339
 432 2  0     6.63102   14.29594   5.13929
 433 3  0    5.53841   10.62906   6.34171
 434 2  0     4.36416   12.15189   7.05760
 435 2  0     6.20458   14.36786   7.76351
 436 3  0    7.78088   13.23486   6.77943
 437 3  0    7.35444   15.42894   9.40365
 438 3  0    5.11196   12.82314   8.96593
 439 2  0     8.95513   14.75769   6.06354
 440 2  0     8.52868   13.90611   8.68777
 441 2  0     3.93772   11.30031   9.68182
 442 2  0     7.11471   11.76206   5.35762
 443 2  0     6.68827   11.69014   7.98185
 444 2  0     5.77813   14.29594   10.38774
 445 3  0    4.68552   10.62906   11.59016
 446 2  0     3.51127   12.15189   12.30605
 447 2  0     5.35169   14.36786   13.01197
 448 3  0    6.92799   13.23486   12.02788
 449 3  0    6.50155   15.42894   14.65211
 450 3  0    4.25908   12.82314   14.21439
 451 2  0     8.10224   14.75769   11.31199
 452 2  0     7.67580   13.90611   13.93622
 453 2  0     3.08483   11.30031   14.93028
 454 2  0     6.26182   11.76206   10.60607
 455 2  0     5.83538   11.69014   13.23030
 456 2  0     4.92525   14.29594   15.63619
 457 3  0    3.83264   10.62906   16.83861
 458 2  0     2.65839   12.15189   17.55450
 459 2  0     4.49881   14.36786   18.26042
 460 3  0    6.07511   13.23486   17.27633
 461 3  0    5.64867   15.42894   19.90056
 462 3  0    3.40619   12.82314   19.46284
 463 2  0     7.24936   14.75769   16.56045
 464 2  0     6.82291   13.90611   19.18467
 465 2  0     2.23195   11.30031   20.17873
 466 2  0     5.40894   11.76206   15.85453
 467 2  0     4.98250   11.69014   18.47876
 468 2  0     4.07236   14.29594   20.88465
 469 3  0    2.97975   10.62906   22.08707
 470 2  0     1.80550   12.15189   22.80296
 471 2  0     3.64592   14.36786   23.50887
 472 3  0    5.22222   13.23486   22.52479
 473 3  0    4.79578   15.42894   25.14901
 474 3  0    2.55331   12.82314   24.71129
 475 2  0     6.39647   14.75769   21.80890
 476 2  0     5.97003   13.90611   24.43313
 477 2  0     1.37906   11.30031   25.42718
 478 2  0     4.55605   11.76206   21.10298
 479 2  0     4.12961   11.69014   23.72721
 480 2  0     3.21948   14.29594   26.13310
 481 3  0    6.39129   15.84066   1.09325
 482 2  0     5.21704   17.36349   1.80914
 483 2  0     7.05746   19.57946   2.51506
 484 3  0    8.63376   18.44646   1.53097
 485 3  0    8.20732   20.64054   4.15520
 486 3  0    5.96485   18.03474   3.71748
 487 2  0     9.80801   19.96929   0.81508
 488 2  0     9.38157   19.11771   3.43931
 489 2  0     4.79060   16.51191   4.43337
 490 2  0     7.96759   16.97366   0.10917
 491 2  0     7.54115   16.90174   2.73339
 492 2  0     6.63102   19.50754   5.13929
 493 3  0    5.53841   15.84066   6.34171
 494 2  0     4.36416   17.36349   7.05760
 495 2  0     6.20458   19.57946   7.76351
 496 3  0    7.78088   18.44646   6.77943
 497 3  0    7.35444   20.64054   9.40365
 498 3  0    5.11196   18.03474   8.96593
 499 2  0     8.95513   19.96929   6.06354
 500 2  0     8.52868   19.11771   8.68777
 501 2  0     3.93772   16.51191   9.68182
 502 2  0     7.11471   16.97366   5.35762
 503 2  0     6.68827   16.90174   7.98185
 504 2  0     5.77813   19.50754   10.38774
 505 3  0    4.68552   15.84066   11.59016
 506 2  0     3.51127   17.36349   12.30605
 507 2  0     5.35169   19.57946   13.01197
 508 3  0    6.92799   18.44646   12.02788
 509 3  0    6.50155   20.64054   14.65211
 510 3  0    4.25908   18.03474   14.21439
 511 2  0     8.10224   19.96929   11.31199
 512 2  0     7.67580   19.11771   13.93622
 513 2  0     3.08483   16.51191   14.93028
 514 2  0     6.26182   16.97366   10.60607
 515 2  0     5.83538   16.90174   13.23030
 516 2  0     4.92525   19.50754   15.63619
 517 3  0    3.83264   15.84066   16.83861
 518 2  0     2.65839   17.36349   17.55450
 519 2  0     4.49881   19.57946   18.26042
 520 3  0    6.07511   18.44646   17.27633
 521 3  0    5.64867   20.64054   19.90056
 522 3  0    3.40619   18.03474   19.46284
 523 2  0     7.24936   19.96929   16.56045
 524 2  0     6.82291   19.11771   19.18467
 525 2  0     2.23195   16.51191   20.17873
 526 2  0     5.40894   16.97366   15.85453
 527 2  0     4.98250   16.90174   18.47876
 528 2  0     4.07236   19.50754   20.88465
 529 3  0    2.97975   15.84066   22.08707
 530 2  0     1.80550   17.36349   22.80296
 531 2  0     3.64592   19.57946   23.50887
 532 3  0    5.22222   18.44646   22.52479
 533 3  0    4.79578   20.64054   25.14901
 534 3  0    2.55331   18.03474   24.71129
 535 2  0     6.39647   19.96929   21.80890
 536 2  0     5.97003   19.11771   24.43313
 537 2  0     1.37906   16.51191   25.42718
 538 2  0     4.55605   16.97366   21.10298
 539 2  0     4.12961   16.90174   23.72721
 540 2  0     3.21948   19.50754   26.13310
 541 3  0    6.39129   21.05226   1.09325
 542 2  0     5.21704   22.57509   1.80914
 543 2  0     7.05746   24.79106   2.51506
 544 3  0    8.63376   23.65806   1.53097
 545 3  0    8.20732   25.85214   4.15520
 546 3  0    5.96485   23.24634   3.71748
 547 2  0     9.80801   25.18089   0.81508
 548 2  0     9.38157   24.32931   3.43931
 549 2  0     4.79060   21.72351   4.43337
 550 2  0     7.96759   22.18526   0.10917
 551 2  0     7.54115   22.11334   2.73339
 552 2  0     6.63102   24.71914   5.13929
 553 3  0    5.53841   21.05226   6.34171
 554 2  0     4.36416   22.57509   7.05760
 555 2  0     6.20458   24.79106   7.76351
 556 3  0    7.78088   23.65806   6.77943
 557 3  0    7.35444   25.85214   9.40365
 558 3  0    5.11196   23.24634   8.96593
 559 2  0     8.95513   25.18089   6.06354
 560 2  0     8.52868   24.32931   8.68777
 561 2  0     3.93772   21.72351   9.68182
 562 2  0     7.11471   22.18526   5.35762
 563 2  0     6.68827   22.11334   7.98185
 564 2  0     5.77813   24.71914   10.38774
 565 3  0    4.68552   21.05226   11.59016
 566 2  0     3.51127   22.57509   12.30605
 567 2  0     5.35169   24.79106   13.01197
 568 3  0    6.92799   23.65806   12.02788
 569 3  0    6.50155   25.85214   14.65211
 570 3  0    4.25908   23.24634   14.21439
 571 2  0     8.10224   25.18089   11.31199
 572 2  0     7.67580   24.32931   13.93622
 573 2  0     3.08483   21.72351   14.93028
 574 2  0     6.26182   22.18526   10.60607
 575 2  0     5.83538   22.11334   13.23030
 576 2  0     4.92525   24.71914   15.63619
 577 3  0    3.83264   21.05226   16.83861
 578 2  0     2.65839   22.57509   17.55450
 579 2  0     4.49881   24.79106   18.26042
 580 3  0    6.07511   23.65806   17.27633
 581 3  0    5.64867   25.85214   19.90056
 582 3  0    3.40619   23.24634   19.46284
 583 2  0     7.24936   25.18089   16.56045
 584 2  0     6.82291   24.32931   19.18467
 585 2  0     2.23195   21.72351   20.17873
 586 2  0     5.40894   22.18526   15.85453
 587 2  0     4.98250   22.11334   18.47876
 588 2  0     4.07236   24.71914   20.88465
 589 3  0    2.97975   21.05226   22.08707
 590 2  0     1.80550   22.57509   22.80296
 591 2  0     3.64592   24.79106   23.50887
 592 3  0    5.22222   23.65806   22.52479
 593 3  0    4.79578   25.85214   25.14901
 594 3  0    2.55331   23.24634   24.71129
 595 2  0     6.39647   25.18089   21.80890
 596 2  0     5.97003   24.32931   24.43313
 597 2  0     1.37906   21.72351   25.42718
 598 2  0     4.55605   22.18526   21.10298
 599 2  0     4.12961   22.11334   23.72721
 600 2  0     3.21948   24.71914   26.13310
 601 3  0   11.54179   0.20586   1.09325
 602 2  0    10.36755   1.72869   1.80914
 603 2  0    12.20796   3.94466   2.51506
 604 3  0   13.78427   2.81166   1.53097
 605 3  0   13.35782   5.00574   4.15520
 606 3  0   11.11535   2.39994   3.71748
 607 2  0    14.95851   4.33449   0.81508
 608 2  0    14.53207   3.48291   3.43931
 609 2  0     9.94110   0.87711   4.43337
 610 2  0    13.11809   1.33886   0.10917
 611 2  0    12.69165   1.26694   2.73339
 612 2  0    11.78152   3.87274   5.13929
 613 3  0   10.68891   0.20586   6.34171
 614 2  0     9.51466   1.72869   7.05760
 615 2  0    11.35508   3.94466   7.76351
 616 3  0   12.93138   2.81166   6.77943
 617 3  0   12.50494   5.00574   9.40365
 618 3  0   10.26246   2.39994   8.96593
 619 2  0    14.10563   4.33449   6.06354
 620 2  0    13.67918   3.48291   8.68777
 621 2  0     9.08822   0.87711   9.68182
 622 2  0    12.26521   1.33886   5.35762
 623 2  0    11.83877   1.26694   7.98185
 624 2  0    10.92863   3.87274   10.38774
 625 3  0    9.83602   0.20586   11.59016
 626 2  0     8.66178   1.72869   12.30605
 627 2  0    10.50219   3.94466   13.01197
 628 3  0   12.07850   2.81166   12.02788
 629 3  0   11.65205   5.00574   14.65211
 630 3  0    9.40958   2.39994   14.21439
 631 2  0    13.25274   4.33449   11.31199
 632 2  0    12.82630   3.48291   13.93622
 633 2  0     8.23533   0.87711   14.93028
 634 2  0    11.41232   1.33886   10.60607
 635 2  0    10.98588   1.26694   13.23030
 636 2  0    10.07575   3.87274   15.63619
 637 3  0    8.98314   0.20586   16.83861
 638 2  0     7.80889   1.72869   17.55450
 639 2  0     9.64931   3.94466   18.26042
 640 3  0   11.22561   2.81166   17.27633
 641 3  0   10.79917   5.00574   19.90056
 642 3  0    8.55669   2.39994   19.46284
 643 2  0    12.39986   4.33449   16.56045
 644 2  0    11.97341   3.48291   19.18467
 645 2  0     7.38245   0.87711   20.17873
 646 2  0    10.55944   1.33886   15.85453
 647 2  0    10.13300   1.26694   18.47876
 648 2  0     9.22286   3.87274   20.88465
 649 3  0    8.13025   0.20586   22.08707
 650 2  0     6.95601   1.72869   22.80296
 651 2  0     8.79642   3.94466   23.50887
 652 3  0   10.37273   2.81166   22.52479
 653 3  0    9.94628   5.00574   25.14901
 654 3  0    7.70381   2.39994   24.71129
 655 2  0    11.54697   4.33449   21.80890
 656 2  0    11.12053   3.48291   24.43313
 657 2  0     6.52956   0.87711   25.42718
 658 2  0     9.70655   1.33886   21.10298
 659 2  0     9.28011   1.26694   23.72721
 660 2  0     8.36998   3.87274   26.13310
 661 3  0   11.54179   5.41746   1.09325
 662 2  0    10.36754   6.94029   1.80914
 663 2  0    12.20796   9.15626   2.51506
 664 3  0   13.78426   8.02326   1.53097
 665 3  0   13.35782   10.21734   4.15520
 666 3  0   11.11535   7.61154   3.71748
 667 2  0    14.95851   9.54609   0.81508
 668 2  0    14.53207   8.69451   3.43931
 669 2  0     9.94110   6.08871   4.43337
 670 2  0    13.11809   6.55046   0.10917
 671 2  0    12.69165   6.47854   2.73339
 672 2  0    11.78152   9.08434   5.13929
 673 3  0   10.68891   5.41746   6.34171
 674 2  0     9.51466   6.94029   7.05760
 675 2  0    11.35508   9.15626   7.76351
 676 3  0   12.93138   8.02326   6.77943
 677 3  0   12.50494   10.21734   9.40365
 678 3  0   10.26246   7.61154   8.96593
 679 2  0    14.10563   9.54609   6.06354
 680 2  0    13.67918   8.69451   8.68777
 681 2  0     9.08822   6.08871   9.68182
 682 2  0    12.26521   6.55046   5.35762
 683 2  0    11.83877   6.47854   7.98185
 684 2  0    10.92863   9.08434   10.38774
 685 3  0    9.83602   5.41746   11.59016
 686 2  0     8.66177   6.94029   12.30605
 687 2  0    10.50219   9.15626   13.01197
 688 3  0   12.07849   8.02326   12.02788
 689 3  0   11.65205   10.21734   14.65211
 690 3  0    9.40958   7.61154   14.21439
 691 2  0    13.25274   9.54609   11.31199
 692 2  0    12.82630   8.69451   13.93622